/*--------------------------------*- C++ -*----------------------------------*\
| =========                 |                                                 |
| \\      /  F ield         | OpenFOAM: The Open Source CFD Toolbox           |
|  \\    /   O peration     | Version:  2312                                  |
|   \\  /    A nd           | Website:  www.openfoam.com                      |
|    \\/     M anipulation  |                                                 |
\*---------------------------------------------------------------------------*/
FoamFile
{
    version     2.0;
    format      ascii;
    arch        "LSB;label=32;scalar=64";
    class       surfaceScalarField;
    location    "5e-05";
    object      deltaRho_nei;
}
// * * * * * * * * * * * * * * * * * * * * * * * * * * * * * * * * * * * * * //

dimensions      [1 0 -1 0 0 0 0];

oriented        oriented;

internalField   nonuniform List<scalar> 
799
(
-0
-0
-0
3.05007e-17
-0
-0
-0
-3.05007e-17
-3.05007e-17
-0
-0
-0
-0
-0
3.05007e-17
-0
-0
3.05007e-17
-0
-3.05007e-17
-3.05007e-17
-0
-0
-0
9.1502e-17
-3.05007e-17
-3.05007e-17
3.05007e-17
-0
-0
-0
-0
-0
-0
-0
-0
-0
-0
-0
-0
-0
-0
-0
-0
-0
3.05007e-17
-0
-0
-0
-0
6.10014e-17
-0
-0
-0
-0
3.05007e-17
3.05007e-17
-0
-0
3.05007e-17
3.05007e-17
-0
3.05007e-17
3.05007e-17
3.05007e-17
-0
-0
3.05007e-17
-0
-0
-0
-0
3.05007e-17
-0
-0
6.10014e-17
3.05007e-17
-0
-0
3.05007e-17
3.05007e-17
3.05007e-17
-0
-0
6.10014e-17
3.05007e-17
3.05007e-17
3.05007e-17
-0
-0
-0
-3.05007e-17
3.05007e-17
3.05007e-17
-0
-0
3.05007e-17
-0
-0
3.05007e-17
-0
3.05007e-17
-0
-0
3.05007e-17
3.05007e-17
-0
3.05007e-17
-0
-0
-0
6.10014e-17
3.05007e-17
3.05007e-17
-0
-0
6.10014e-17
3.05007e-17
3.05007e-17
-0
-0
-0
3.05007e-17
-0
3.05007e-17
3.05007e-17
3.05007e-17
-0
-0
-0
-0
-0
-0
-0
-3.05007e-17
-0
-0
3.05007e-17
-0
-0
-0
-0
3.05007e-17
3.05007e-17
-0
-0
-3.05007e-17
-0
-0
3.05007e-17
3.05007e-17
-3.05007e-17
-0
-0
-3.05007e-17
3.05007e-17
-0
-0
-0
-0
-0
-0
3.05007e-17
-3.05007e-17
3.05007e-17
-0
-0
-0
-0
3.05007e-17
-0
-0
-3.05007e-17
-0
-0
-0
-0
-0
3.05007e-17
-3.05007e-17
-0
-0
-0
-0
-0
-0
-3.05007e-17
-0
3.05007e-17
3.05007e-17
-0
-0
-0
-0
-0
3.05007e-17
-0
-0
-0
-0
3.05007e-17
-0
-0
-3.05007e-17
-0
-0
3.05007e-17
3.05007e-17
-0
-0
-3.05007e-17
-0
-0
3.05007e-17
-3.05007e-17
3.05007e-17
-0
-0
-3.05007e-17
-3.05007e-17
-0
3.05007e-17
-3.05007e-17
-3.05007e-17
-0
-0
-0
-0
3.05007e-17
-3.05007e-17
-0
-3.05007e-17
3.05007e-17
-0
-0
-0
-0
-0
-0
-3.05007e-17
3.05007e-17
6.10014e-17
-0
-0
3.05007e-17
-0
3.05007e-17
-6.10014e-17
3.05007e-17
-0
-0
-0
3.05007e-17
3.05007e-17
-0
3.05007e-17
-0
3.05007e-17
-0
-0
-0
3.05007e-17
-3.05007e-17
-0
-0
3.05007e-17
-0
3.05007e-17
3.05007e-17
-0
-0
-0
-0
-0
3.05007e-17
-0
-0
-0
3.05007e-17
-0
-0
-6.10014e-17
-0
-9.1502e-17
3.05007e-17
-0
3.05007e-17
3.05007e-17
3.05007e-17
-0
3.05007e-17
-0
3.05007e-17
3.05007e-17
-0
-0
3.05007e-17
-0
3.05007e-17
-0
-6.10014e-17
3.05007e-17
3.05007e-17
3.05007e-17
3.05007e-17
3.05007e-17
-0
-0
-0
-0
-0
-0
-0
-0
3.05007e-17
3.05007e-17
-0
3.05007e-17
3.05007e-17
-0
-0
-0
3.05007e-17
-0
-0
-0
-0
-0
-0
-0
-0
3.05007e-17
3.05007e-17
-0
3.05007e-17
-0
-0
3.05007e-17
3.05007e-17
-0
3.05007e-17
-3.05007e-17
-0
3.05007e-17
6.10014e-17
-3.05007e-17
-3.05007e-17
6.10014e-17
6.10014e-17
-0
3.05007e-17
6.10014e-17
-0
-6.10014e-17
-0
-0
-3.05001e-17
-3.04976e-17
-3.0494e-17
-4.00951e-12
-9.9587e-12
-1.3914e-11
-1.74346e-11
-1.9297e-11
-1.84299e-11
-1.44274e-11
-5.7939e-12
3.90562e-12
8.46278e-12
1.26678e-11
1.7238e-11
1.43442e-11
1.47509e-11
9.20058e-12
5.92114e-12
-3.49172e-17
2.93507e-12
-4.68381e-12
-4.34191e-12
-2.28289e-12
-1.40884e-12
-3.22834e-13
2.8652e-13
-0
1.6932e-12
3.23194e-12
1.74197e-12
2.53329e-12
-1.82216e-12
8.6815e-12
1.92913e-12
1.24567e-11
-4.1524e-12
-1.27564e-11
-3.33467e-11
-1.38074e-10
3.39663e-10
9.07734e-10
0.0181314
17.2672
0.137415
0.000140212
5.28838e-08
-1.35893e-09
-2.92434e-09
2.37498e-09
-6.89835e-09
2.41716e-13
-7.76714e-09
9.88104e-09
1.74904e-09
-5.26939e-09
3.51317e-09
1.0677e-08
-3.2031e-08
2.27547e-08
-4.17484e-09
4.96414e-09
2.62784e-09
-1.06713e-08
-1.1557e-08
3.05193e-08
-2.15025e-08
6.06816e-09
-6.52576e-09
-3.43402e-09
1.4359e-08
-2.97902e-09
3.96296e-09
-4.88271e-09
3.07812e-09
2.9513e-10
-0
-8.49776e-11
-4.41308e-11
2.50033e-14
-1.89858e-11
-3.07707e-11
3.07707e-11
-1.04514e-11
6.5175e-11
-3.33377e-14
1.69522e-11
-1.69022e-11
-3.44212e-12
-5.73407e-12
6.30166e-11
-8.33443e-15
-8.97032e-11
1.02647e-10
1.6763e-10
1.99283e-08
-1.74235e-09
1.77651e-09
-3.88258e-09
3.94932e-09
2.72953e-11
-2.14887e-09
-1.87764e-08
2.51513e-08
-1.97609e-08
-2.69735e-10
2.04251e-08
1.07597e-11
-2.12487e-08
2.32996e-09
-1.28504e-09
2.01703e-08
-3.24557e-09
3.2791e-09
-1.46905e-09
1.42742e-09
-1.94671e-09
-9.15773e-09
-1.20893e-09
-3.22575e-10
2.03206e-08
-2.30952e-08
2.31072e-08
-3.94606e-09
3.94934e-09
-0
-2.05049e-08
1.38636e-08
2.18046e-09
5.6024e-11
-1.59099e-08
-1.62978e-09
2.03166e-08
-9.25222e-10
-1.77036e-08
2.09313e-08
1.74106e-11
-2.52127e-09
2.47964e-09
2.37615e-11
-1.03174e-09
-1.74153e-08
1.34391e-08
2.35138e-09
-3.33282e-09
3.33205e-09
-1.879e-09
1.91318e-09
-2.83469e-08
2.83785e-08
-2.55067e-08
2.54958e-08
-2.29621e-08
2.29382e-08
-6.84257e-12
-1.59884e-09
1.61935e-09
-6.8259e-12
6.8259e-12
-7.61842e-10
-1.79715e-08
1.58037e-08
1.42464e-09
-1.46413e-08
-1.04455e-09
1.79357e-08
4.04386e-11
-1.88641e-08
1.60214e-08
9.15145e-10
-1.66689e-14
8.33443e-15
8.33443e-15
-1.63647e-10
5.50156e-11
-1.63753e-08
-2.32653e-09
2.33172e-08
-0
-8.33443e-15
-2.60951e-11
1.36768e-11
3.41712e-12
-0
6.00746e-11
-2.44609e-09
2.43246e-09
-3.78214e-09
3.88669e-09
-1.43366e-09
1.48269e-09
-2.55135e-08
2.55251e-08
-5.05483e-11
2.61868e-11
-1.74773e-11
1.66939e-11
4.6006e-11
3.783e-11
2.57367e-11
8.33443e-15
8.33443e-15
1.66689e-14
-5.02899e-11
-5.0465e-11
4.70394e-11
2.50033e-14
3.39211e-12
-3.39211e-12
5.48239e-11
-5.69157e-11
-2.67952e-11
2.67785e-11
8.33443e-15
1.55943e-08
2.18507e-09
3.40878e-12
2.90038e-12
2.50033e-14
-0
2.24446e-11
-9.67627e-12
-1.66689e-11
-8.33443e-15
8.94284e-12
-3.64965e-11
3.6488e-11
-0
8.33443e-15
3.51713e-11
3.64965e-11
8.33443e-15
-0
8.33443e-15
6.84257e-12
-0
6.74255e-12
2.38115e-11
4.16721e-12
4.18388e-12
1.58354e-12
1.5252e-11
-8.33442e-15
-0
1.66689e-14
1.48269e-11
6.83423e-12
-0
1.59438e-11
1.59438e-11
4.00886e-12
4.02553e-12
-6.8509e-12
2.26301e-08
-2.36823e-08
1.91659e-08
-1.62346e-08
2.07716e-08
-1.91385e-08
1.91386e-08
-2.28282e-08
2.27652e-08
-3.41628e-11
3.41545e-11
-0
8.33443e-15
-0
-1.84217e-09
-1.24527e-08
2.84748e-09
1.00817e-08
-1.76303e-09
1.74191e-09
-1.70772e-11
-3.81007e-09
3.61796e-09
4.40308e-11
-8.33443e-15
8.33443e-15
1.92942e-11
-3.20175e-09
3.20736e-09
-2.06144e-08
2.06144e-08
-0
2.15123e-08
8.33443e-15
-6.84257e-12
2.3327e-08
-0
-8.33443e-15
1.86775e-11
1.66689e-14
2.27549e-08
-0
4.37808e-11
-1.90029e-08
6.83288e-10
-2.88407e-09
2.12477e-08
-4.36142e-09
4.39529e-09
-2.0548e-09
2.07032e-09
-3.42545e-12
-3.75799e-11
1.71022e-11
5.38654e-11
-2.24796e-09
2.17485e-09
2.517e-12
-1.13932e-11
-1.45977e-09
1.6218e-09
-2.36848e-08
2.37028e-08
-0
-1.97936e-09
1.89057e-09
-1.22516e-11
3.08374e-11
-1.98436e-09
-1.43588e-08
1.16504e-09
1.66887e-08
3.75716e-11
3.36044e-11
-3.02367e-09
2.96972e-09
-1.36601e-11
-2.78787e-11
3.01873e-11
-8.33443e-15
-0
-2.01703e-08
1.43059e-08
1.91659e-09
-2.23782e-08
1.92164e-08
1.06323e-09
-2.50033e-14
4.26389e-11
-2.6831e-10
2.59309e-10
-0
-0
1.44436e-11
-3.06707e-12
-1.91692e-12
-1.82524e-11
2.37615e-11
8.33442e-15
1.66689e-14
-1.66689e-14
1.66689e-14
1.36685e-11
-2.05027e-11
1.65522e-11
1.12348e-11
-1.39268e-11
2.11278e-11
2.0336e-12
2.05027e-11
2.89955e-11
4.53643e-11
1.66689e-14
6.32583e-12
-0
1.76356e-11
8.33443e-15
1.43019e-11
1.68439e-11
1.68439e-11
2.07611e-11
1.36685e-11
1.66689e-14
1.45519e-11
1.06431e-11
8.33443e-15
6.33417e-12
-6.88424e-12
-8.29192e-11
3.83134e-11
-8.33443e-15
-5.92244e-11
-2.32197e-11
9.73461e-12
8.33443e-15
2.22363e-11
8.33443e-15
-6.86674e-11
6.8659e-11
-9.8763e-12
-6.8259e-12
9.05952e-12
-5.0665e-11
-3.41711e-12
4.68811e-11
-8.33443e-15
-8.33443e-15
1.71689e-12
-1.69189e-12
-0
8.33443e-15
1.66689e-14
-4.31723e-12
-8.00105e-13
-1.66689e-14
7.03926e-11
-8.33443e-15
2.20862e-11
-7.05009e-11
3.38378e-11
-0
1.66689e-14
-8.33443e-15
6.84257e-12
-3.23376e-11
-3.23209e-11
2.81071e-09
1.22424e-08
-1.66689e-14
-2.99671e-09
-1.08301e-08
1.40652e-08
1.90355e-09
1.70856e-11
-2.07784e-08
2.08156e-08
-4.06926e-09
8.54112e-11
3.88381e-09
-6.92558e-09
7.01724e-09
3.47462e-11
-3.91071e-09
3.59997e-09
9.22371e-11
3.58047e-11
-1.80107e-11
-1.40043e-10
1.46144e-10
-6.81756e-12
)
;

boundaryField
{
    sides
    {
        type            calculated;
        value           uniform -0;
    }
    empty1
    {
        type            empty;
        value           nonuniform List<scalar> 0();
    }
    empty2
    {
        type            empty;
        value           nonuniform List<scalar> 0();
    }
}


// ************************************************************************* //
