/*--------------------------------*- C++ -*----------------------------------*\
| =========                 |                                                 |
| \\      /  F ield         | OpenFOAM: The Open Source CFD Toolbox           |
|  \\    /   O peration     | Version:  2312                                  |
|   \\  /    A nd           | Website:  www.openfoam.com                      |
|    \\/     M anipulation  |                                                 |
\*---------------------------------------------------------------------------*/
FoamFile
{
    version     2.0;
    format      ascii;
    arch        "LSB;label=32;scalar=64";
    class       surfaceScalarField;
    location    "5e-05";
    object      deltaRho_own;
}
// * * * * * * * * * * * * * * * * * * * * * * * * * * * * * * * * * * * * * //

dimensions      [1 0 -1 0 0 0 0];

oriented        oriented;

internalField   nonuniform List<scalar> 
799
(
-0
-0
-0
-0
-6.10014e-17
-0
-0
-0
3.05007e-17
3.05007e-17
-0
-0
-0
-0
-0
-3.05007e-17
-0
-0
-3.05007e-17
-0
3.05007e-17
-0
-0
-0
-0
-0
3.05007e-17
-3.05007e-17
-3.05007e-17
-0
-0
-0
-0
-0
-0
-0
-0
-0
-0
-0
-0
-0
-0
-0
-0
-0
-3.05007e-17
-0
-0
-0
-0
-3.05007e-17
-0
-6.10014e-17
-0
-0
-3.05007e-17
-0
-0
-3.05007e-17
-3.05007e-17
-0
-3.05007e-17
-3.05007e-17
-3.05007e-17
-3.05007e-17
-0
-0
-3.05007e-17
-0
-0
-0
-0
-3.05007e-17
-0
-0
-3.05007e-17
-6.10014e-17
-0
-0
-3.05007e-17
-3.05007e-17
-3.05007e-17
-0
-0
-3.05007e-17
-3.05007e-17
-3.05007e-17
-3.05007e-17
-0
-0
-0
3.05007e-17
-3.05007e-17
-3.05007e-17
-0
-0
-3.05007e-17
-0
-0
-3.05007e-17
-0
-3.05007e-17
-0
-6.10014e-17
-3.05007e-17
-0
-0
-0
-0
-0
-0
-3.05007e-17
-3.05007e-17
-3.05007e-17
-0
-0
-3.05007e-17
-3.05007e-17
3.05007e-17
-0
-0
-0
-3.05007e-17
-0
-3.05007e-17
-3.05007e-17
-0
-0
-0
-0
-0
-0
-0
-0
3.05007e-17
-0
-3.05007e-17
-0
-0
-0
-0
-0
-6.10014e-17
-6.10014e-17
-0
-0
3.05007e-17
-0
-0
-3.05007e-17
-0
-0
-0
-0
-3.05007e-17
-3.05007e-17
-0
-0
-0
-0
-0
-0
-9.1502e-17
3.05007e-17
-3.05007e-17
-0
-0
-0
-0
-3.05007e-17
-0
-0
-0
-0
-0
-0
-0
-0
-3.05007e-17
3.05007e-17
-0
-0
-0
-0
-0
-0
3.05007e-17
-0
-3.05007e-17
6.10014e-17
-0
-0
-0
-0
-3.05007e-17
-0
-0
-0
-0
-0
-0
-0
3.05007e-17
-0
-0
-3.05007e-17
3.05007e-17
-3.05007e-17
-0
-0
3.05007e-17
-0
3.05007e-17
-3.05007e-17
-0
-6.10014e-17
-0
-0
3.05007e-17
-0
-0
-3.05007e-17
3.05007e-17
-0
-0
-0
-0
-0
-3.05007e-17
3.05007e-17
-0
-3.05007e-17
-6.10014e-17
-0
-0
-0
-0
6.10014e-17
-0
-0
-3.05007e-17
-0
-0
-0
-3.05007e-17
-0
-3.05007e-17
3.05007e-17
-3.05007e-17
3.05007e-17
-0
-0
-3.05007e-17
-0
-3.05007e-17
-3.05007e-17
-0
-3.05007e-17
-0
-0
-0
-3.05007e-17
3.05007e-17
-0
-6.10014e-17
-3.05007e-17
-0
-3.05007e-17
-0
-0
-0
-0
-3.05007e-17
-0
-3.05007e-17
-0
-0
-3.05007e-17
-3.05007e-17
-0
-0
-0
-0
-0
-3.05007e-17
-0
-3.05007e-17
-3.05007e-17
-3.05007e-17
-0
-3.05007e-17
-0
-3.05007e-17
3.05007e-17
-0
-0
-3.05007e-17
-0
-3.05007e-17
-0
3.05007e-17
-3.05007e-17
-0
-3.05007e-17
-0
-3.05007e-17
-0
-6.10014e-17
-0
-0
-0
-0
-0
-3.05007e-17
-0
-3.05007e-17
-0
-3.05007e-17
-0
-0
-0
-0
-3.05007e-17
-0
-0
-0
-0
-3.05007e-17
-0
-0
-3.05007e-17
-3.05007e-17
-3.05007e-17
-0
-0
-0
-0
-3.05007e-17
-3.05007e-17
-0
-0
3.05007e-17
-6.10014e-17
-3.05007e-17
-6.10014e-17
1.22003e-16
-3.05007e-17
-3.05007e-17
-3.05007e-17
3.05007e-17
-1.22003e-16
-6.10014e-17
2.13505e-16
-9.15021e-17
-0
-3.05001e-17
9.14927e-17
3.0494e-17
3.04866e-17
1.20226e-11
1.38331e-11
1.79297e-11
2.04251e-11
1.99871e-11
1.59767e-11
8.91018e-12
-5.69861e-12
-1.14489e-11
-9.81403e-12
-1.92092e-11
-1.93288e-11
-1.47509e-11
-1.48135e-11
-5.92114e-12
-3.09365e-12
-0
2.38442e-12
3.73288e-12
2.36202e-12
1.16084e-12
3.34119e-13
-2.8652e-13
-8.83659e-13
-0
-2.30016e-12
-1.74197e-12
-1.5302e-12
-6.64511e-13
-2.41868e-12
-1.92913e-12
1.63945e-11
7.85261e-13
1.12246e-11
1.87802e-11
9.37163e-12
-1.72582e-10
-4.44518e-10
-2.19946e-09
-6.51909e-05
0.00461412
-0.000589164
5.14942e-08
1.35893e-09
8.11421e-10
-2.37498e-09
-2.37748e-09
-2.41716e-13
-5.2593e-12
-4.94005e-09
2.47538e-12
1.75894e-09
-1.75663e-09
8.33446e-15
1.0677e-08
-1.06838e-08
1.39388e-09
-1.3871e-09
2.18992e-09
4.83819e-09
6.80921e-12
-1.03688e-08
9.7818e-09
-1.94574e-09
2.17667e-09
-2.1724e-09
-5.60647e-09
9.73645e-10
-1.03174e-09
1.89948e-09
-1.09059e-09
-2.62379e-09
-1.3097e-08
-5.97885e-10
2.09599e-08
-2.07576e-08
-4.88521e-10
2.21807e-08
-3.0754e-11
-2.09424e-08
-6.49275e-10
2.29412e-08
-8.33443e-15
-2.40532e-09
-1.29171e-08
-6.84255e-12
2.01714e-08
-1.96562e-08
5.50029e-10
2.48524e-10
-1.60553e-09
1.67664e-10
9.96714e-11
-0
-0
6.67004e-11
8.33443e-15
2.73119e-11
-3.75549e-11
-8.33443e-15
8.33443e-15
2.33947e-11
-4.76646e-11
-3.89885e-11
1.07681e-11
-2.61284e-11
6.82588e-12
2.0011e-11
-0
-8.33443e-15
1.30267e-11
-0
-7.45931e-12
7.45931e-12
4.93564e-11
3.46128e-11
-2.5395e-11
-1.66689e-14
6.3675e-12
5.68408e-12
3.25043e-12
-8.33443e-15
2.50033e-14
-2.70869e-11
8.33443e-15
-1.96943e-11
5.60324e-11
1.02672e-10
-1.0263e-10
-9.28622e-11
9.28455e-11
-8.33443e-15
-1.10931e-11
1.7419e-11
-3.33377e-14
-4.16388e-11
2.37531e-11
2.50033e-14
-1.90692e-11
-9.00118e-13
8.91784e-13
2.20612e-11
1.13432e-11
-0
-8.33443e-15
1.57854e-11
1.57937e-11
8.33443e-15
-1.08431e-11
-1.08348e-11
-1.30017e-11
-8.33443e-15
-1.66689e-14
8.33443e-15
8.33443e-15
-0
-5.8341e-14
-1.85024e-11
-3.8005e-11
-8.33443e-15
1.10648e-10
-5.95912e-12
-5.49156e-11
4.04553e-11
2.84204e-11
-1.35851e-12
-4.14555e-11
8.33443e-15
-1.66689e-14
-8.33443e-15
-5.43238e-11
-5.43488e-11
-3.47461e-11
-1.66689e-14
-3.0254e-12
8.33443e-15
1.66689e-14
8.06773e-12
-1.02847e-11
-0
8.33443e-15
6.00662e-11
-2.50033e-14
-0
2.37615e-11
5.34904e-11
3.5363e-11
-0
-8.33443e-15
1.16432e-11
-1.63605e-11
-7.93438e-12
-1.56851e-09
1.63603e-09
-3.91011e-09
3.95984e-09
-6.31e-11
1.22975e-10
-2.3409e-08
2.34022e-08
-2.20928e-08
1.78414e-09
1.66062e-08
8.33443e-15
-8.33443e-15
-1.88687e-08
-5.10899e-11
1.91363e-08
-2.67785e-11
-2.21729e-08
-8.33442e-15
5.36737e-12
-2.19029e-11
-2.12154e-09
-1.39598e-08
2.03274e-08
-0
-3.94344e-10
4.07079e-10
-1.66605e-11
8.33443e-15
-1.75478e-08
-1.63877e-09
2.24001e-08
-8.33443e-15
-3.33377e-14
-4.21482e-09
4.30012e-09
-0
1.66689e-14
-8.33443e-15
-0
-3.41712e-12
-2.19684e-09
2.25813e-09
-3.33706e-09
3.23603e-09
-2.03532e-08
1.62294e-08
-1.50321e-08
1.9282e-08
-0
-2.20481e-08
2.20561e-08
-2.76043e-09
2.48939e-09
-1.30963e-09
1.61653e-09
-2.26534e-08
6.8509e-12
1.66689e-14
-1.66688e-14
-1.66688e-14
6.80923e-12
-8.33443e-15
-0
-1.66689e-14
-8.33443e-15
-6.3025e-11
8.33443e-15
8.33443e-15
-0
-0
8.33443e-15
1.29084e-10
8.33441e-15
9.72795e-11
-0
-1.38435e-11
-2.7737e-11
-1.0268e-11
-6.5717e-11
-8.33443e-15
-1.40602e-11
8.33443e-15
-8.33443e-15
1.93192e-11
2.77536e-12
2.80037e-12
-8.33443e-15
-2.15232e-08
-0
-6.83423e-13
-2.33304e-08
6.84257e-12
-2.21382e-09
2.21381e-09
-0
-2.28095e-08
-1.66689e-14
-2.54283e-11
-8.33443e-15
2.32947e-11
-2.8337e-11
-8.33441e-15
4.03136e-11
3.20375e-11
3.20375e-11
8.67614e-12
8.69281e-12
8.33443e-15
1.02263e-11
-1.71022e-11
-6.88424e-12
5.04733e-11
-1.66689e-14
-2.87371e-11
-8.75115e-13
2.96456e-11
2.43365e-12
2.45866e-12
1.8019e-11
-0
-0
-3.20542e-11
-1.236e-11
-1.22683e-11
8.33443e-14
-1.99609e-11
-3.39044e-11
3.42128e-11
-3.10457e-11
1.70856e-11
1.65188e-11
-3.77383e-11
-1.61771e-11
3.41712e-12
-1.76607e-11
-1.7644e-11
8.33443e-15
-0
-0
1.54187e-12
-8.33443e-15
5.92578e-12
4.70895e-11
-4.71145e-11
-0
4.26389e-11
-1.82524e-12
-7.15094e-12
-2.50033e-14
2.50033e-14
-1.88163e-09
-1.46285e-08
2.02026e-08
-1.37114e-09
-1.81787e-08
2.23704e-08
-0
-1.66689e-14
-3.0754e-11
1.02597e-11
2.05027e-11
-2.18619e-08
2.18829e-08
-2.41782e-11
-9.16204e-11
2.2553e-11
1.09306e-10
-1.58357e-09
1.65788e-09
-8.33443e-15
-4.23682e-09
3.75808e-10
3.13335e-09
8.33443e-15
-2.48296e-08
2.48608e-08
-4.07598e-09
4.06233e-09
-1.66689e-14
5.12234e-11
-1.44765e-09
1.47284e-09
-8.33443e-15
-3.78584e-09
3.76832e-09
-9.99715e-11
-1.93633e-09
-1.33922e-08
1.9257e-08
-2.32114e-11
-2.44282e-11
6.84257e-12
-2.14258e-08
2.14753e-08
-6.8659e-11
-6.45752e-11
-2.16595e-08
1.85578e-08
-3.01815e-10
-5.069e-11
-1.79359e-08
2.239e-08
8.33443e-15
-3.42545e-12
-1.70022e-12
-2.3076e-08
2.31015e-08
8.33443e-15
-2.73453e-11
2.30447e-11
-6.71737e-09
6.71662e-09
-1.41572e-09
-1.8527e-08
1.81801e-08
1.41907e-09
1.05589e-10
-2.37097e-08
2.37097e-08
-2.46867e-08
2.02728e-08
-1.6185e-08
-3.23375e-11
4.34474e-11
-1.5527e-11
1.66689e-14
6.77755e-11
-1.04014e-11
-1.66689e-14
-5.064e-11
-0
8.33443e-15
3.72132e-11
3.71799e-11
-1.02513e-11
5.74576e-11
5.74576e-11
1.66689e-14
3.47712e-11
5.22652e-11
-1.11265e-11
-8.33443e-15
1.52853e-11
-9.33456e-13
-0
-1.09598e-11
)
;

boundaryField
{
    sides
    {
        type            calculated;
        value           uniform -0;
    }
    empty1
    {
        type            empty;
        value           nonuniform List<scalar> 0();
    }
    empty2
    {
        type            empty;
        value           nonuniform List<scalar> 0();
    }
}


// ************************************************************************* //
