/*--------------------------------*- C++ -*----------------------------------*\
| =========                 |                                                 |
| \\      /  F ield         | OpenFOAM: The Open Source CFD Toolbox           |
|  \\    /   O peration     | Version:  2312                                  |
|   \\  /    A nd           | Website:  www.openfoam.com                      |
|    \\/     M anipulation  |                                                 |
\*---------------------------------------------------------------------------*/
FoamFile
{
    version     2.0;
    format      ascii;
    arch        "LSB;label=32;scalar=64";
    class       volScalarField;
    location    "5e-05";
    object      maxKappa;
}
// * * * * * * * * * * * * * * * * * * * * * * * * * * * * * * * * * * * * * //

dimensions      [0 0 0 0 0 0 0];

internalField   nonuniform List<scalar> 
800
(
4.70291e-12
4.70291e-12
4.45539e-12
4.45539e-12
1.03959e-11
1.03959e-11
2.10393e-11
2.10393e-11
8.66326e-12
9.40583e-12
9.40583e-12
5.44548e-12
5.94052e-12
1.85641e-11
1.85641e-11
6.18804e-12
4.20787e-12
6.93061e-12
8.16822e-12
8.16822e-12
2.97026e-12
3.96035e-12
3.49006e-11
3.49006e-11
2.17819e-11
2.17819e-11
1.88117e-11
1.88117e-11
1.73265e-11
2.97026e-12
2.97026e-12
7.67317e-12
1.23761e-11
1.23761e-11
1.01484e-11
3.4653e-11
3.4653e-11
3.04452e-11
2.8465e-11
2.8465e-11
2.07918e-11
4.70291e-12
1.46038e-11
1.46038e-11
9.90087e-12
1.03959e-11
1.03959e-11
6.68309e-12
1.43563e-11
1.43563e-11
1.28711e-11
5.693e-12
5.19796e-12
5.19796e-12
1.1881e-11
1.1881e-11
1.33662e-11
1.33662e-11
3.4653e-12
3.4653e-12
3.71283e-12
3.71283e-12
9.1583e-12
9.1583e-12
7.42565e-12
1.53463e-11
1.60889e-11
1.60889e-11
5.44548e-12
1.83166e-11
1.83166e-11
8.66326e-12
9.1583e-12
1.6584e-11
3.31679e-11
3.31679e-11
1.21286e-11
2.47522e-13
1.1881e-11
1.1881e-11
4.95043e-12
4.95043e-12
2.2277e-12
1.21286e-11
1.21286e-11
2.72274e-12
2.72274e-12
1.21286e-11
2.97026e-11
2.97026e-11
2.52472e-11
2.30195e-11
1.26236e-11
2.72274e-12
2.72274e-12
6.43557e-12
6.43557e-12
7.9207e-12
1.78216e-11
1.78216e-11
8.66326e-12
8.66326e-12
3.96035e-12
3.96035e-12
8.91078e-12
1.01484e-11
1.01484e-11
1.31187e-11
1.7079e-11
2.35146e-11
2.35146e-11
3.21778e-11
3.21778e-11
1.23761e-11
3.4653e-12
7.42565e-12
9.40583e-12
9.40583e-12
2.72274e-12
1.01484e-11
2.77224e-11
2.77224e-11
1.41087e-11
2.17819e-11
2.40096e-11
2.40096e-11
1.78216e-11
1.16335e-11
3.53956e-11
3.53956e-11
6.93061e-12
2.62373e-11
2.62373e-11
1.80691e-11
1.80691e-11
1.23761e-11
2.10393e-11
2.10393e-11
1.11385e-11
1.28711e-11
1.28711e-11
1.48513e-11
1.48513e-11
1.63364e-11
1.63364e-11
2.05443e-11
2.05443e-11
2.47522e-12
7.9207e-12
1.80691e-11
2.25245e-11
4.40589e-11
4.40589e-11
4.92568e-11
4.92568e-11
1.33662e-11
1.11385e-11
2.10393e-11
2.10393e-11
2.67323e-11
2.67323e-11
1.7079e-11
1.7079e-11
4.35638e-11
4.35638e-11
1.46038e-11
2.52472e-11
2.52472e-11
5.693e-12
1.28711e-11
1.31187e-11
6.65833e-11
6.65833e-11
4.75242e-11
5.24746e-11
5.24746e-11
1.6584e-11
8.66326e-12
6.68309e-12
9.90087e-13
6.43557e-12
7.17813e-12
7.17813e-12
2.62373e-11
3.34154e-11
3.34154e-11
2.3267e-11
2.3267e-11
9.1583e-12
7.42565e-12
9.1583e-12
9.1583e-12
4.20787e-12
8.91078e-12
1.63364e-11
1.63364e-11
1.03959e-11
1.0891e-11
1.0891e-11
3.3663e-11
3.3663e-11
1.36137e-11
1.36137e-11
4.95043e-13
9.90087e-13
9.1583e-12
9.1583e-12
8.16822e-12
8.16822e-12
1.88117e-11
1.88117e-11
1.33662e-11
1.33662e-11
2.17819e-11
2.17819e-11
6.43557e-12
2.2277e-12
1.36137e-11
1.36137e-11
1.06434e-11
1.06434e-11
1.01484e-11
1.01484e-11
1.16335e-11
2.64848e-11
4.08411e-11
4.08411e-11
4.00985e-11
3.4158e-11
2.57423e-11
1.78216e-11
8.91078e-12
2.72274e-12
4.95043e-12
2.20294e-11
2.20294e-11
2.2277e-12
4.95043e-12
1.60889e-11
1.60889e-11
3.4653e-12
1.03959e-11
1.26236e-11
3.66332e-11
3.66332e-11
2.97026e-12
1.53463e-11
1.53463e-11
1.16335e-11
2.72274e-12
8.16822e-12
8.16822e-12
8.16822e-12
5.94052e-12
3.96035e-12
2.97026e-12
2.97026e-12
7.42565e-13
4.95043e-12
2.54947e-11
2.64848e-11
2.64848e-11
2.35146e-11
1.1881e-11
1.16335e-11
6.93061e-12
6.93061e-12
4.45539e-12
2.72274e-12
7.9207e-12
7.9207e-12
1.0891e-11
1.0891e-11
6.43557e-12
6.68309e-12
6.68309e-12
6.43557e-12
7.9207e-12
7.9207e-12
5.19796e-12
7.42565e-13
1.6584e-11
2.12869e-11
2.12869e-11
1.63364e-11
2.00493e-11
2.72274e-11
2.72274e-11
1.23761e-11
3.21778e-12
4.70291e-12
8.16822e-12
1.1386e-11
1.1386e-11
6.43557e-12
7.9207e-12
7.9207e-12
2.2277e-12
2.2277e-12
5.693e-12
5.693e-12
4.95043e-12
2.47522e-13
0
3.71283e-12
6.68309e-12
6.68309e-12
5.44548e-12
9.90087e-12
1.06434e-11
1.06434e-11
2.35146e-11
2.35146e-11
1.48513e-11
1.48513e-11
6.18804e-12
6.18804e-12
7.42565e-12
7.42565e-12
8.66326e-12
8.66326e-12
3.4653e-12
3.4653e-12
9.90087e-13
1.58414e-11
1.58414e-11
7.42565e-12
1.31187e-11
1.31187e-11
1.23761e-11
1.23761e-11
2.47522e-12
2.47522e-12
7.9207e-12
7.9207e-12
5.94052e-12
1.28711e-11
1.28711e-11
4.95043e-13
8.91078e-12
1.01484e-11
1.23761e-11
1.23761e-11
3.96035e-11
4.78707e-10
4.41108e-09
3.56805e-08
2.72461e-07
1.85337e-06
1.11413e-05
6.24753e-05
0.000336886
0.00175288
0.00878232
0.041898
0.180814
0.633318
1
1
1
1
1
1
1
1
1
1
1
1
1
1
1
1
1
1
1
1
1
1
1
1
1
1
1
1
1
1
1
1
1
1
1
1
1
1
1
1
1
1
1
1
0.28973
0.183297
0.169259
0.152186
0.134893
0.115832
0.0943343
0.0737955
0.0546951
0.035345
0.0207451
0.0115587
0.00627068
0.00337654
0.00182039
0.000987944
0.000541542
0.000302454
0.000170032
9.66627e-05
5.41824e-05
2.99531e-05
1.5884e-05
8.20816e-06
4.02226e-06
1.89993e-06
8.62038e-07
3.63758e-07
1.42279e-07
4.231e-08
1.39969e-08
2.59388e-08
2.82423e-08
2.82423e-08
3.18241e-08
3.32333e-08
3.32333e-08
3.08414e-08
3.23195e-08
3.23195e-08
2.83968e-08
2.5704e-08
2.53154e-08
2.49287e-08
2.1994e-08
1.89112e-08
1.50746e-08
1.3571e-08
7.77795e-09
5.93138e-09
4.22336e-09
6.68226e-09
8.66629e-09
9.91902e-09
1.09583e-08
1.20723e-08
1.32528e-08
1.42056e-08
1.72196e-08
1.80241e-08
2.00447e-08
2.12718e-08
2.12718e-08
2.07048e-08
1.91973e-08
2.07203e-08
2.07203e-08
1.98785e-08
1.84544e-08
1.84932e-08
1.84932e-08
1.79749e-08
1.5995e-08
1.78039e-08
2.0765e-08
2.29427e-08
2.29427e-08
2.60089e-08
2.60089e-08
2.41799e-08
2.18674e-08
1.98088e-08
2.08719e-08
2.10631e-08
2.10631e-08
1.85355e-08
2.3814e-08
2.47579e-08
2.47579e-08
2.26918e-08
2.36922e-08
2.36922e-08
2.33066e-08
2.26923e-08
2.26923e-08
2.12912e-08
1.97025e-08
1.92878e-08
1.92878e-08
1.89088e-08
1.85404e-08
1.7943e-08
1.67503e-08
1.57861e-08
1.74992e-08
1.74992e-08
2.24262e-08
2.24262e-08
2.31884e-08
2.31884e-08
2.11196e-08
1.81562e-08
1.49163e-08
1.21129e-08
9.70944e-09
7.73211e-09
9.69558e-09
1.00991e-08
1.00991e-08
1.1463e-08
1.50534e-08
1.50534e-08
1.50442e-08
1.55154e-08
1.55154e-08
1.39547e-08
1.26027e-08
1.17454e-08
1.08837e-08
1.05892e-08
1.05892e-08
1.18909e-08
1.73545e-08
1.73545e-08
1.57221e-08
1.4439e-08
1.24627e-08
9.93977e-09
7.547e-09
5.8734e-09
5.34893e-09
5.37522e-09
5.37522e-09
4.25792e-09
4.2017e-09
2.98081e-09
1.967e-09
2.06291e-09
2.06291e-09
1.39037e-09
1.39037e-09
7.91828e-10
1.22585e-09
2.74875e-09
4.92127e-09
7.12877e-09
8.85396e-09
1.16762e-08
1.16762e-08
1.19833e-08
1.19833e-08
9.43536e-09
7.0771e-09
8.85925e-09
1.07511e-08
1.07511e-08
5.77075e-09
4.49469e-09
5.8262e-09
5.8262e-09
1.38938e-09
1.38938e-09
2.01314e-09
2.01314e-09
2.94807e-09
3.94715e-09
4.89903e-09
6.26659e-09
7.83768e-09
8.95969e-09
9.41696e-09
9.41696e-09
6.70718e-09
3.96278e-09
4.16722e-09
4.31256e-09
4.31256e-09
4.27991e-09
4.58678e-09
5.24609e-09
5.54065e-09
5.54065e-09
5.48435e-09
5.03106e-09
5.21525e-09
5.21525e-09
5.69517e-09
5.69517e-09
4.80579e-09
4.44088e-09
4.97137e-09
6.6845e-09
6.6845e-09
3.3482e-09
3.76552e-09
3.87581e-09
3.90028e-09
4.33935e-09
4.33935e-09
1.11747e-09
5.0176e-09
5.15971e-09
7.83248e-09
7.83248e-09
8.25468e-09
8.25468e-09
1.31546e-08
1.31546e-08
1.24766e-08
1.19903e-08
1.09264e-08
9.72689e-09
9.09057e-09
9.09057e-09
1.1219e-08
1.1219e-08
1.12184e-08
1.16848e-08
1.19467e-08
1.19467e-08
1.2314e-08
1.2314e-08
1.16625e-08
9.38959e-09
6.8767e-09
4.15276e-09
2.30769e-09
2.30769e-09
1.51471e-09
1.51471e-09
3.65533e-09
3.65533e-09
1.91608e-09
1.07151e-09
1.07151e-09
2.20518e-09
3.06067e-09
3.52256e-09
5.66417e-09
5.66417e-09
5.0261e-09
5.6578e-09
1.06542e-08
1.09708e-08
1.29613e-08
1.43336e-08
1.50589e-08
1.54278e-08
1.54278e-08
1.53743e-08
1.52813e-08
1.48624e-08
1.4466e-08
1.34168e-08
1.19338e-08
1.19338e-08
1.00885e-08
8.71061e-09
7.67564e-09
6.36678e-09
7.40763e-09
7.40763e-09
5.85174e-09
4.33786e-09
4.24411e-09
2.78744e-09
1.37103e-09
6.3839e-10
3.05333e-09
1.02417e-08
1.03277e-08
1.03277e-08
9.942e-09
1.03982e-08
1.04462e-08
1.04462e-08
9.79054e-09
8.91001e-09
7.423e-09
6.05776e-09
4.95997e-09
3.81696e-09
2.50057e-09
5.44749e-09
5.44749e-09
5.16813e-09
4.36233e-09
3.48279e-09
2.45038e-09
1.24264e-09
1.39384e-09
2.11598e-09
2.8134e-09
4.1378e-09
4.1378e-09
4.88647e-09
5.6039e-09
5.6039e-09
2.80877e-09
2.9045e-09
4.45062e-09
5.95558e-09
6.12332e-09
6.52594e-09
6.52594e-09
4.18988e-09
5.15813e-09
5.86356e-09
6.93573e-09
7.27179e-09
7.27179e-09
7.39588e-09
8.26154e-09
9.39811e-09
1.03495e-08
1.19028e-08
1.37325e-08
1.37325e-08
9.97259e-09
1.1702e-08
1.28382e-08
1.36485e-08
1.45735e-08
1.54257e-08
1.6599e-08
1.7883e-08
1.7883e-08
1.59795e-08
1.59795e-08
1.50158e-08
1.4484e-08
1.11101e-08
1.01046e-08
9.94539e-09
1.1022e-08
1.1022e-08
9.41323e-09
1.06158e-08
1.06158e-08
9.34107e-09
4.83679e-09
4.86762e-09
4.86762e-09
4.27545e-09
1.35738e-09
2.03314e-09
2.11366e-09
2.11366e-09
1.65128e-09
1.20254e-09
1.66939e-09
2.561e-09
3.92599e-09
5.42342e-09
7.33446e-09
8.32e-09
8.32e-09
6.10133e-09
6.59545e-09
8.78643e-09
8.78643e-09
7.83538e-09
7.83538e-09
9.51138e-10
9.51138e-10
3.89466e-09
3.89466e-09
3.446e-09
3.3854e-09
5.34895e-09
5.34895e-09
3.48188e-09
3.42947e-09
4.41409e-09
5.71095e-09
7.85447e-09
9.67663e-09
1.03183e-08
1.03183e-08
1.03116e-08
9.46713e-09
1.04243e-08
1.04243e-08
1.01684e-08
9.2736e-09
7.56759e-09
6.007e-09
4.68491e-09
2.3048e-09
)
;

boundaryField
{
    sides
    {
        type            calculated;
        value           uniform 0;
    }
    empty1
    {
        type            empty;
    }
    empty2
    {
        type            empty;
    }
}


// ************************************************************************* //
