/*--------------------------------*- C++ -*----------------------------------*\
| =========                 |                                                 |
| \\      /  F ield         | OpenFOAM: The Open Source CFD Toolbox           |
|  \\    /   O peration     | Version:  2312                                  |
|   \\  /    A nd           | Website:  www.openfoam.com                      |
|    \\/     M anipulation  |                                                 |
\*---------------------------------------------------------------------------*/
FoamFile
{
    version     2.0;
    format      ascii;
    arch        "LSB;label=32;scalar=64";
    class       surfaceScalarField;
    location    "5e-05";
    object      phi;
}
// * * * * * * * * * * * * * * * * * * * * * * * * * * * * * * * * * * * * * //

dimensions      [1 0 -1 0 0 0 0];

oriented        oriented;

internalField   nonuniform List<scalar> 
799
(
5.27356e-16
2.22045e-16
-4.996e-16
2.77556e-16
1.16573e-15
-6.93889e-16
-2.35922e-15
-2.77556e-17
9.71445e-16
1.05471e-15
4.996e-16
6.10623e-16
-6.66134e-16
-2.08167e-15
-6.93889e-16
-4.71845e-16
-8.32667e-17
7.77156e-16
-9.15934e-16
3.33067e-16
-2.498e-16
-4.44089e-16
3.91354e-15
9.4369e-16
-2.44249e-15
-1.80411e-15
2.10942e-15
1.94289e-15
-2.77556e-16
-3.33067e-16
5.55112e-17
-8.60423e-16
-1.38778e-15
1.13798e-15
9.15934e-16
-3.88578e-15
-3.41394e-15
-4.71845e-16
3.19189e-15
2.33147e-15
5.27356e-16
2.22045e-16
-1.63758e-15
-1.11022e-15
7.49401e-16
1.16573e-15
-1.94289e-16
-7.49401e-16
1.60982e-15
1.44329e-15
-6.38378e-16
-1.38778e-16
-5.82867e-16
-1.38778e-16
1.33227e-15
-6.66134e-16
-1.4988e-15
-1.66533e-16
3.88578e-16
0
-4.16334e-16
2.22045e-16
1.02696e-15
2.77556e-16
8.32667e-16
1.72085e-15
-1.80411e-15
1.38778e-16
6.10623e-16
-2.05391e-15
-9.71445e-16
4.71845e-16
-1.02696e-15
-1.85962e-15
3.71925e-15
1.36002e-15
2.77556e-17
0
-1.33227e-15
3.60822e-16
5.55112e-16
2.498e-16
8.32667e-17
-1.36002e-15
1.11022e-16
3.05311e-16
-2.77556e-17
-1.36002e-15
-3.33067e-15
2.83107e-15
2.58127e-15
-1.41553e-15
1.38778e-16
3.05311e-16
-8.32667e-17
7.21645e-16
4.16334e-16
-8.88178e-16
-1.9984e-15
-1.66533e-16
9.71445e-16
1.94289e-16
-4.44089e-16
-8.32667e-17
9.99201e-16
1.13798e-15
8.60423e-16
-1.47105e-15
-1.91513e-15
-2.63678e-15
-5.27356e-16
3.60822e-15
1.38778e-15
5.55112e-17
-3.88578e-16
-8.32667e-16
1.05471e-15
3.05311e-16
5.55112e-17
-1.13798e-15
-3.10862e-15
1.58207e-15
3.33067e-16
-2.44249e-15
2.69229e-15
1.9984e-15
1.16573e-15
-1.30451e-15
-3.96905e-15
-6.93889e-16
7.77156e-16
2.94209e-15
-1.83187e-15
-2.02616e-15
1.38778e-15
-1.94289e-16
2.35922e-15
1.249e-15
-1.11022e-15
1.44329e-15
8.04912e-16
-1.66533e-15
-8.60423e-16
1.83187e-15
1.66533e-16
-2.30371e-15
-2.77556e-16
2.498e-16
8.88178e-16
2.02616e-15
-2.52576e-15
-4.94049e-15
4.16334e-16
5.52336e-15
1.4988e-15
-1.38778e-16
-1.249e-15
-2.35922e-15
-3.05311e-16
-2.9976e-15
-9.99201e-16
-1.91513e-15
2.77556e-16
4.88498e-15
1.249e-15
-1.63758e-15
2.83107e-15
6.38378e-16
-5.27356e-16
1.44329e-15
-1.47105e-15
-7.46625e-15
-3.16414e-15
5.32907e-15
5.88418e-15
1.85962e-15
-9.71445e-16
-7.49401e-16
1.11022e-16
-1.11022e-16
7.21645e-16
8.04912e-16
-4.44089e-16
-2.94209e-15
-3.747e-15
4.44089e-16
2.60902e-15
1.02696e-15
5.27356e-16
-8.32667e-16
-1.02696e-15
3.60822e-16
-4.71845e-16
9.99201e-16
1.83187e-15
-6.38378e-16
-1.16573e-15
-1.22125e-15
-9.4369e-16
3.77476e-15
6.10623e-16
-1.52656e-15
-5.55112e-17
0
1.11022e-16
1.02696e-15
8.88178e-16
9.15934e-16
-1.66533e-16
-2.10942e-15
-1.4988e-15
-8.04912e-16
1.4988e-15
2.44249e-15
-7.21645e-16
2.498e-16
1.66533e-16
-1.52656e-15
-3.88578e-16
-1.19349e-15
-1.13798e-15
1.13798e-15
-6.66134e-16
-1.30451e-15
2.96985e-15
4.57967e-15
-4.4964e-15
-3.83027e-15
2.88658e-15
1.9984e-15
9.99201e-16
-2.77556e-16
3.05311e-16
-5.55112e-16
-2.47025e-15
-2.77556e-17
2.498e-16
5.55112e-16
1.80411e-15
2.77556e-17
3.88578e-16
1.16573e-15
-1.41553e-15
-4.10783e-15
-2.22045e-16
-3.33067e-16
1.72085e-15
1.30451e-15
3.05311e-16
-5.55112e-17
9.15934e-16
9.15934e-16
-6.66134e-16
4.44089e-16
1.11022e-16
-3.33067e-16
-8.32667e-17
-8.32667e-17
5.55112e-16
-2.85882e-15
-2.96985e-15
2.63678e-15
1.33227e-15
1.30451e-15
5.82867e-16
-7.77156e-16
4.996e-16
-5.55112e-17
3.05311e-16
8.88178e-16
-8.60423e-16
-1.22125e-15
5.55112e-16
7.21645e-16
-7.49401e-16
-6.66134e-16
-7.21645e-16
8.88178e-16
5.82867e-16
-5.55112e-17
8.32667e-17
-1.85962e-15
-2.38698e-15
1.83187e-15
-2.77556e-16
-2.2482e-15
3.05311e-15
1.38778e-15
0
3.60822e-16
5.27356e-16
9.15934e-16
-1.27676e-15
8.32667e-17
7.21645e-16
-8.88178e-16
-2.22045e-16
2.498e-16
-5.55112e-17
6.38378e-16
5.55112e-16
2.77556e-17
0
0
-4.16334e-16
-7.49401e-16
8.32667e-17
-6.10623e-16
-1.11022e-15
1.19349e-15
1.19349e-15
-2.63678e-15
-8.60423e-16
1.66533e-15
4.71845e-16
6.93889e-16
4.71845e-16
-8.32667e-16
3.88578e-16
9.71445e-16
1.66533e-16
-3.88578e-16
-1.11022e-16
0
-1.77636e-15
-8.32667e-16
2.77556e-17
1.47105e-15
8.32667e-16
-1.38778e-15
1.11022e-16
2.77556e-16
-1.11022e-16
8.88178e-16
-6.66134e-16
-5.27356e-16
1.44329e-15
-5.55112e-17
0
9.99201e-16
-1.13798e-15
-1.38778e-15
7.21645e-16
4.44089e-15
5.36793e-14
4.94632e-13
4.00099e-12
3.05521e-11
2.07826e-10
1.24931e-09
7.0056e-09
3.77763e-08
1.96557e-07
9.84795e-07
4.69817e-06
2.02749e-05
7.101e-05
0.000190002
0.000422874
0.000892354
0.00179088
0.00340473
0.00610877
0.0103177
0.0163852
0.0244774
0.0344742
0.0459602
0.0583508
0.0706479
0.0824245
0.0932476
0.102736
0.111169
0.11804
0.123987
0.128384
0.131756
0.133721
0.134697
0.134735
0.134385
0.133555
0.132809
0.130916
0.128776
0.125346
0.120648
0.115812
0.109681
0.103008
0.0950824
0.0889975
0.0839003
0.0795509
0.0754197
0.0709005
0.0649948
0.0373654
-0.0713737
0.0332676
0.0314743
0.0291156
0.0261783
0.0232008
0.0199212
0.0162221
0.0126892
0.00940401
0.00607655
0.0035663
0.00198698
0.00107793
0.00058042
0.000312919
0.000169823
9.30888e-05
5.19904e-05
2.92277e-05
1.66158e-05
9.31366e-06
5.1488e-06
2.73039e-06
1.41094e-06
6.91405e-07
3.26587e-07
1.4818e-07
6.25283e-08
2.44571e-08
7.27289e-09
1.05469e-09
-2.406e-09
-4.45876e-09
-4.8547e-09
-4.847e-09
-5.47041e-09
-5.71262e-09
-5.09363e-09
-5.30149e-09
-5.55556e-09
-4.88124e-09
-4.4184e-09
-4.35161e-09
-4.28513e-09
-3.78066e-09
-3.25073e-09
-2.59125e-09
-2.33278e-09
-1.33699e-09
-1.01957e-09
-3.85384e-10
7.25976e-10
1.14865e-09
1.4897e-09
1.70503e-09
1.88368e-09
2.07517e-09
2.2781e-09
2.44187e-09
2.95996e-09
3.09825e-09
3.44558e-09
3.65652e-09
3.55907e-09
3.25687e-09
3.29992e-09
3.56171e-09
3.41701e-09
3.16157e-09
3.17223e-09
3.1789e-09
3.0898e-09
2.74946e-09
2.43304e-09
3.06039e-09
3.56938e-09
3.94374e-09
3.63795e-09
4.47081e-09
4.1564e-09
3.7589e-09
3.40505e-09
3.11471e-09
3.58777e-09
3.62066e-09
3.18616e-09
2.7007e-09
4.09349e-09
4.25575e-09
3.90061e-09
3.76131e-09
4.07258e-09
4.0063e-09
3.81067e-09
3.90069e-09
3.65986e-09
3.38676e-09
3.16579e-09
3.31548e-09
3.25034e-09
3.18701e-09
3.08432e-09
2.8793e-09
2.71355e-09
2.46797e-09
3.00803e-09
2.62354e-09
3.85495e-09
3.47904e-09
3.98597e-09
3.63036e-09
3.12097e-09
2.56405e-09
2.08215e-09
1.66901e-09
1.32911e-09
1.32319e-09
1.66662e-09
1.73598e-09
1.35591e-09
1.97043e-09
2.58761e-09
2.58603e-09
2.47148e-09
2.66702e-09
2.39875e-09
2.16635e-09
2.01898e-09
1.87086e-09
1.81768e-09
1.82023e-09
1.79432e-09
2.04398e-09
2.98316e-09
2.70256e-09
2.482e-09
2.14229e-09
1.7086e-09
1.29729e-09
1.00961e-09
9.19457e-10
8.17479e-10
9.23976e-10
7.31916e-10
7.22252e-10
5.12387e-10
3.38119e-10
1.14454e-10
3.54603e-10
2.37648e-10
2.38998e-10
1.36112e-10
-1.45519e-11
-2.10719e-10
-4.72497e-10
-8.45944e-10
-1.2254e-09
-1.52195e-09
-2.00708e-09
-1.72828e-09
-2.05986e-09
-1.62188e-09
-1.05582e-09
-1.21652e-09
-1.52286e-09
-1.84806e-09
-9.9196e-10
-4.37495e-10
-7.72616e-10
-1.0015e-09
1.68541e-11
2.38828e-10
1.32303e-11
-3.46049e-10
-3.45253e-10
-5.06759e-10
-6.78497e-10
-8.42121e-10
-1.0772e-09
-1.34726e-09
-1.54013e-09
-1.61873e-09
-1.15293e-09
-6.3929e-10
-6.81183e-10
-7.16327e-10
-7.41309e-10
-7.35696e-10
-7.30083e-10
-7.88447e-10
-9.01778e-10
-9.52411e-10
-9.42734e-10
-8.57341e-10
-8.64816e-10
-8.96478e-10
-8.61291e-10
-9.78972e-10
-8.26091e-10
-7.63364e-10
-5.28786e-10
-8.54556e-10
-1.14903e-09
-3.5007e-10
-5.7554e-10
-6.47276e-10
-6.66233e-10
-6.7044e-10
-7.45914e-10
1.92088e-10
1.03356e-10
8.62499e-10
8.86928e-10
1.34636e-09
1.1208e-09
1.41894e-09
1.15436e-09
2.2612e-09
2.14467e-09
2.06107e-09
1.87819e-09
1.67201e-09
1.52396e-09
1.56263e-09
1.31901e-09
1.92848e-09
1.92838e-09
1.81115e-09
2.00856e-09
2.05358e-09
2.04565e-09
2.11672e-09
2.00473e-09
1.61403e-09
1.18207e-09
7.1384e-10
3.4926e-10
3.96682e-10
7.52891e-11
2.60371e-10
-5.69855e-11
6.28333e-10
3.29365e-10
-5.31628e-11
1.84187e-10
-1.25581e-10
-3.7906e-10
-5.26114e-10
-6.0551e-10
9.73642e-10
8.63963e-10
8.44835e-10
9.72548e-10
1.8314e-09
1.88582e-09
2.22799e-09
2.46388e-09
2.58855e-09
2.65197e-09
2.64276e-09
2.62678e-09
2.55478e-09
2.48663e-09
2.30629e-09
2.04547e-09
2.05137e-09
1.73416e-09
1.49731e-09
1.31941e-09
1.09442e-09
8.82494e-10
1.27334e-09
1.00589e-09
7.45658e-10
7.29543e-10
4.79147e-10
2.35673e-10
1.09736e-10
1.25056e-11
5.24849e-10
1.7605e-09
1.77529e-09
1.70898e-09
1.48302e-09
1.7874e-09
1.79566e-09
1.68295e-09
1.53159e-09
1.27598e-09
1.0413e-09
8.52594e-10
6.56115e-10
4.29836e-10
2.18478e-10
9.36396e-10
8.88377e-10
7.49864e-10
5.98675e-10
4.2121e-10
2.13603e-10
-3.59393e-11
-2.39595e-10
-3.63727e-10
-4.8361e-10
-7.11267e-10
-6.5225e-10
-8.39961e-10
-9.63283e-10
-4.82814e-10
-4.06999e-10
-4.9927e-10
-7.65041e-10
-1.02374e-09
-1.05257e-09
-1.12178e-09
-5.30733e-10
-7.2022e-10
-8.86658e-10
-1.00792e-09
-1.19222e-09
-1.24999e-09
-1.21329e-09
-1.27132e-09
-1.42012e-09
-1.61549e-09
-1.77903e-09
-2.04604e-09
-2.36055e-09
-1.44709e-09
-1.71424e-09
-2.01152e-09
-2.20683e-09
-2.34611e-09
-2.50512e-09
-2.6516e-09
-2.8533e-09
-3.07401e-09
-2.74545e-09
-2.7468e-09
-2.58115e-09
-2.48973e-09
-1.90977e-09
-1.73694e-09
-1.61113e-09
-1.70957e-09
-1.89462e-09
-1.34266e-09
-1.61809e-09
-1.8248e-09
-1.60568e-09
-8.3142e-10
-7.23219e-10
-8.36721e-10
-7.34929e-10
-1.0462e-10
-2.33328e-10
-3.49488e-10
-3.63329e-10
-2.83848e-10
-2.06711e-10
-2.06626e-10
-2.8696e-10
-4.40224e-10
-6.74859e-10
-9.3226e-10
-1.26076e-09
-1.43017e-09
-9.6054e-10
-1.04879e-09
-1.13373e-09
-1.51034e-09
-1.03232e-09
-1.34686e-09
-4.5759e-11
-1.63496e-10
1.29077e-10
6.69473e-10
5.92351e-10
5.81935e-10
4.09571e-10
9.19457e-10
5.98519e-10
4.82956e-10
5.89509e-10
7.5876e-10
9.81686e-10
1.35014e-09
1.66337e-09
1.77367e-09
1.77252e-09
1.62736e-09
1.59557e-09
1.79189e-09
1.74791e-09
1.59409e-09
1.30083e-09
1.03257e-09
8.05315e-10
3.96184e-10
)
;

boundaryField
{
    sides
    {
        type            calculated;
        value           uniform 0;
    }
    empty1
    {
        type            empty;
        value           nonuniform List<scalar> 0();
    }
    empty2
    {
        type            empty;
        value           nonuniform List<scalar> 0();
    }
}


// ************************************************************************* //
