/*--------------------------------*- C++ -*----------------------------------*\
| =========                 |                                                 |
| \\      /  F ield         | OpenFOAM: The Open Source CFD Toolbox           |
|  \\    /   O peration     | Version:  2312                                  |
|   \\  /    A nd           | Website:  www.openfoam.com                      |
|    \\/     M anipulation  |                                                 |
\*---------------------------------------------------------------------------*/
FoamFile
{
    version     2.0;
    format      ascii;
    arch        "LSB;label=32;scalar=64";
    class       volVectorField;
    location    "5e-05";
    object      U;
}
// * * * * * * * * * * * * * * * * * * * * * * * * * * * * * * * * * * * * * //

dimensions      [0 1 -1 0 0 0 0];

internalField   nonuniform List<vector> 
800
(
(2.39104e-13 0 0)
(4.78228e-13 0 0)
(-2.52706e-13 0 0)
(-4.64626e-13 0 0)
(9.56455e-13 0 0)
(8.55239e-13 0 0)
(-2.02691e-12 0 0)
(-9.80138e-13 0 0)
(4.78113e-13 0 0)
(9.56417e-13 0 0)
(4.78189e-13 0 0)
(4.78208e-13 0 0)
(4.78247e-13 0 0)
(-1.56624e-12 0 0)
(-1.48375e-12 0 0)
(2.65255e-13 0 0)
(-1.04095e-12 0 0)
(9.56379e-13 0 0)
(-2.08037e-13 0 0)
(-7.48207e-13 0 0)
(1.19527e-12 0 0)
(-1.61777e-12 0 0)
(1.85812e-12 0 0)
(3.3461e-12 0 0)
(-1.85288e-12 0 0)
(-2.04066e-12 0 0)
(6.79684e-14 0 0)
(2.39116e-12 0 0)
(4.78228e-13 0 0)
(-4.78228e-13 0 0)
(-1.91299e-17 0 0)
(-1.91299e-17 0 0)
(-1.37515e-12 0 0)
(-5.37741e-13 0 0)
(1.91299e-12 0 0)
(-1.45867e-12 0 0)
(-3.57707e-12 0 0)
(-1.17961e-12 0 0)
(4.78017e-13 0 0)
(3.82479e-12 0 0)
(1.91301e-17 0 0)
(9.56015e-13 0 0)
(-9.56359e-13 0 0)
(-1.30969e-12 0 0)
(-1.2488e-13 0 0)
(9.56359e-13 0 0)
(4.78189e-13 0 0)
(-5.74967e-13 0 0)
(-3.81507e-13 0 0)
(2.86929e-12 0 0)
(-5.2039e-13 0 0)
(-4.36046e-13 0 0)
(1.04086e-13 0 0)
(-1.06052e-12 0 0)
(9.56493e-13 0 0)
(9.56398e-13 0 0)
(-2.09321e-12 0 0)
(-2.97814e-13 0 0)
(3.82597e-17 0 0)
(4.78132e-13 0 0)
(-4.78228e-13 0 0)
(-1.91299e-17 0 0)
(4.78228e-13 0 0)
(9.56455e-13 0 0)
(-4.78189e-13 0 0)
(1.91266e-12 0 0)
(-1.61839e-13 0 0)
(-1.7508e-12 0 0)
(1.91259e-12 0 0)
(-1.33966e-12 0 0)
(-1.62573e-12 0 0)
(9.63189e-14 0 0)
(4.78189e-13 0 0)
(-2.39032e-12 0 0)
(9.56532e-13 0 0)
(3.34667e-12 0 0)
(-9.56474e-13 0 0)
(9.56474e-13 0 0)
(-9.56455e-13 0 0)
(-9.56493e-13 0 0)
(1.43464e-12 0 0)
(-4.78189e-13 0 0)
(9.56436e-13 0 0)
(-9.5634e-13 0 0)
(-9.56436e-13 0 0)
(9.56379e-13 0 0)
(-4.78228e-13 0 0)
(4.78208e-13 0 0)
(-2.86137e-12 0 0)
(-1.44163e-12 0 0)
(5.25939e-12 0 0)
(-1.03563e-12 0 0)
(-8.772e-13 0 0)
(9.56398e-13 0 0)
(-4.78189e-13 0 0)
(4.78323e-13 0 0)
(4.78189e-13 0 0)
(3.47016e-14 0 0)
(-1.46927e-12 0 0)
(-1.37804e-12 0 0)
(8.99735e-13 0 0)
(4.78208e-13 0 0)
(-1.65971e-13 0 0)
(-3.12257e-13 0 0)
(4.78189e-13 0 0)
(9.56436e-13 0 0)
(9.56455e-13 0 0)
(-3.45001e-23 0 0)
(-1.91278e-12 0 0)
(-1.30791e-12 0 0)
(-2.9947e-12 0 0)
(2.39049e-12 0 0)
(2.86849e-12 0 0)
(-4.78285e-13 0 0)
(4.78228e-13 0 0)
(-1.16457e-12 0 0)
(2.08248e-13 0 0)
(9.56359e-13 0 0)
(-4.78247e-13 0 0)
(6.00008e-13 0 0)
(-2.63273e-12 0 0)
(-1.31407e-12 0 0)
(2.86879e-12 0 0)
(-2.38997e-12 0 0)
(3.51191e-23 0 0)
(2.86797e-12 0 0)
(4.78228e-13 0 0)
(1.30693e-12 0 0)
(-3.58698e-12 0 0)
(-1.54384e-12 0 0)
(-2.29558e-16 0 0)
(1.43474e-12 0 0)
(2.32346e-12 0 0)
(-5.08791e-12 0 0)
(1.80684e-12 0 0)
(1.14779e-16 0 0)
(2.39142e-13 0 0)
(3.10769e-12 0 0)
(-1.06429e-12 0 0)
(-3.70182e-13 0 0)
(2.391e-12 0 0)
(-1.116e-12 0 0)
(-1.27518e-12 0 0)
(4.78189e-13 0 0)
(1.91297e-12 0 0)
(-1.70834e-12 0 0)
(-1.57921e-12 0 0)
(8.96483e-13 0 0)
(-4.7817e-13 0 0)
(1.91283e-12 0 0)
(5.66455e-13 0 0)
(-4.02613e-12 0 0)
(-3.71144e-12 0 0)
(4.3029e-12 0 0)
(3.82465e-12 0 0)
(-9.56398e-13 0 0)
(8.24268e-13 0 0)
(-3.10847e-12 0 0)
(-1.06419e-13 0 0)
(-1.43233e-12 0 0)
(-2.22486e-12 0 0)
(-3.86997e-14 0 0)
(-2.51715e-12 0 0)
(3.34497e-12 0 0)
(4.30221e-12 0 0)
(-2.39037e-12 0 0)
(9.56359e-13 0 0)
(2.39043e-12 0 0)
(-9.56493e-13 0 0)
(4.78189e-13 0 0)
(1.43472e-12 0 0)
(-4.77887e-12 0 0)
(-5.84488e-12 0 0)
(2.01923e-12 0 0)
(5.25714e-12 0 0)
(3.34736e-12 0 0)
(1.38959e-13 0 0)
(-1.09538e-12 0 0)
(-1.78299e-23 0 0)
(-1.91299e-17 0 0)
(3.82598e-17 0 0)
(9.56417e-13 0 0)
(8.62207e-24 0 0)
(-8.53364e-13 0 0)
(-3.45017e-12 0 0)
(-1.91247e-12 0 0)
(1.91268e-12 0 0)
(1.91234e-12 0 0)
(1.91299e-17 0 0)
(6.14356e-13 0 0)
(-1.92634e-12 0 0)
(3.55567e-13 0 0)
(-9.64528e-14 0 0)
(-3.81641e-13 0 0)
(1.91264e-12 0 0)
(4.39451e-13 0 0)
(-9.17679e-13 0 0)
(-8.16654e-13 0 0)
(-1.35047e-12 0 0)
(1.2114e-12 0 0)
(3.34679e-12 0 0)
(-2.29857e-12 0 0)
(-9.24929e-14 0 0)
(-1.91299e-17 0 0)
(-1.91299e-17 0 0)
(4.78266e-13 0 0)
(9.56417e-13 0 0)
(4.78208e-13 0 0)
(9.56436e-13 0 0)
(-1.43457e-12 0 0)
(-1.59593e-12 0 0)
(-7.9498e-13 0 0)
(-4.78113e-13 0 0)
(2.86893e-12 0 0)
(3.87418e-13 0 0)
(-8.65607e-13 0 0)
(1.19554e-12 0 0)
(-1.02375e-12 0 0)
(-1.12822e-12 0 0)
(3.68231e-13 0 0)
(-2.34731e-12 0 0)
(7.83789e-13 0 0)
(7.28064e-13 0 0)
(-1.44538e-12 0 0)
(7.65197e-17 0 0)
(4.30332e-12 0 0)
(1.4342e-12 0 0)
(-7.17175e-12 0 0)
(1.43447e-12 0 0)
(2.39047e-12 0 0)
(9.56455e-13 0 0)
(4.78189e-13 0 0)
(-4.78266e-13 0 0)
(9.56493e-13 0 0)
(-1.9127e-12 0 0)
(-1.43464e-12 0 0)
(9.56302e-13 0 0)
(-4.78094e-13 0 0)
(1.43468e-12 0 0)
(9.56302e-13 0 0)
(-4.78266e-13 0 0)
(9.56417e-13 0 0)
(9.06584e-13 0 0)
(-3.41246e-12 0 0)
(-1.79744e-12 0 0)
(-1.33909e-16 0 0)
(5.73897e-17 0 0)
(2.39058e-12 0 0)
(-5.73895e-17 0 0)
(4.78208e-13 0 0)
(-4.78208e-13 0 0)
(1.91285e-12 0 0)
(-5.20371e-13 0 0)
(-4.36065e-13 0 0)
(9.56455e-13 0 0)
(-7.73134e-13 0 0)
(2.94906e-13 0 0)
(-4.78208e-13 0 0)
(4.78323e-13 0 0)
(6.63041e-14 0 0)
(-4.53958e-12 0 0)
(6.48139e-13 0 0)
(2.39037e-12 0 0)
(9.56495e-17 0 0)
(1.91278e-12 0 0)
(-9.56493e-13 0 0)
(-9.72593e-24 0 0)
(4.78266e-13 0 0)
(-4.78247e-13 0 0)
(9.56474e-13 0 0)
(1.55996e-25 0 0)
(-9.56359e-13 0 0)
(-9.56398e-13 0 0)
(1.9127e-12 0 0)
(-7.48246e-13 0 0)
(-3.91454e-13 0 0)
(-7.73114e-13 0 0)
(-1.91299e-17 0 0)
(9.56455e-13 0 0)
(-3.82597e-17 0 0)
(3.82597e-17 0 0)
(-1.13559e-22 0 0)
(-2.89448e-12 0 0)
(2.55384e-14 0 0)
(2.0239e-12 0 0)
(-2.50198e-12 0 0)
(4.78228e-13 0 0)
(2.86879e-12 0 0)
(-4.78208e-13 0 0)
(4.78208e-13 0 0)
(1.91299e-17 0 0)
(9.56417e-13 0 0)
(-9.71606e-14 0 0)
(-1.33754e-12 0 0)
(1.43466e-12 0 0)
(-5.09945e-13 0 0)
(-7.87538e-13 0 0)
(3.41047e-13 0 0)
(1.91299e-17 0 0)
(1.91299e-17 0 0)
(9.56436e-13 0 0)
(9.11563e-24 0 0)
(3.59465e-36 0 0)
(5.20841e-29 0 0)
(-7.19144e-24 0 0)
(-7.48303e-13 0 0)
(-2.08171e-13 0 0)
(1.31288e-13 0 0)
(-1.08771e-12 0 0)
(5.73896e-17 0 0)
(1.43461e-12 0 0)
(-4.78151e-13 0 0)
(-2.82571e-12 0 0)
(1.39107e-12 0 0)
(9.56513e-13 0 0)
(-9.56493e-17 0 0)
(1.19543e-12 0 0)
(-5.50768e-13 0 0)
(-6.44772e-13 0 0)
(1.19562e-12 0 0)
(2.39104e-13 0 0)
(-2.54436e-24 0 0)
(-4.78189e-13 0 0)
(4.78132e-13 0 0)
(-9.56206e-13 0 0)
(-1.43466e-12 0 0)
(-2.36316e-23 0 0)
(-1.91298e-17 0 0)
(2.39093e-12 0 0)
(-1.03563e-12 0 0)
(-8.77238e-13 0 0)
(9.56513e-13 0 0)
(-4.78247e-13 0 0)
(4.78189e-13 0 0)
(7.93354e-13 0 0)
(-1.85411e-12 0 0)
(1.06083e-12 0 0)
(9.56359e-13 0 0)
(-9.56455e-13 0 0)
(9.52323e-13 0 0)
(4.13205e-15 0 0)
(-1.3737e-12 0 0)
(-8.48984e-14 0 0)
(1.49804e-12 0 0)
(3.65882e-12 0 0)
(6.67344e-11 0 0)
(6.29439e-10 0 0)
(5.01696e-09 0 0)
(4.16021e-08 0 0)
(2.8634e-07 0 0)
(1.68773e-06 0 0)
(9.42615e-06 0 0)
(5.06901e-05 0 0)
(0.000263354 0 0)
(0.00132244 0 0)
(0.00644892 0 0)
(0.0287312 0 0)
(0.0950495 0 0)
(0.226165 0 0)
(0.492122 0 0)
(1.02218 0 0)
(2.01843 0 0)
(3.77564 0 0)
(6.67496 0 0)
(11.1426 0 0)
(17.5734 0 0)
(26.2403 0 0)
(37.2272 0 0)
(50.4108 0 0)
(65.4714 0 0)
(81.7877 0 0)
(99.1511 0 0)
(116.94 0 0)
(135.46 0 0)
(154.062 0 0)
(173.12 0 0)
(192.307 0 0)
(211.34 0 0)
(229.701 0 0)
(245.964 0 0)
(259.738 0 0)
(267.99 0 0)
(275.454 0 0)
(275.51 0 0)
(283.856 0 0)
(279.056 0 0)
(290.277 0 0)
(284.925 0 0)
(293.987 0 0)
(296.365 0 0)
(295.946 0 0)
(282.048 0 0)
(292.7 0 0)
(293.846 0 0)
(292.581 0 0)
(286.682 0 0)
(283.42 0 0)
(270.676 0 0)
(199.027 0 0)
(14.5567 0 0)
(0.0613645 0 0)
(0.405428 0 0)
(0.248102 0 0)
(0.29539 0 0)
(0.225183 0 0)
(0.218782 0 0)
(0.16993 0 0)
(0.143733 0 0)
(0.107688 0 0)
(0.0765247 0 0)
(0.0455431 0 0)
(0.0256748 0 0)
(0.0139726 0 0)
(0.00751115 0 0)
(0.00404879 0 0)
(0.00218661 0 0)
(0.00119542 0 0)
(0.000660219 0 0)
(0.000374475 0 0)
(0.000209444 0 0)
(0.000120788 0 0)
(6.57161e-05 0 0)
(3.6454e-05 0 0)
(1.83152e-05 0 0)
(9.56414e-06 0 0)
(4.32927e-06 0 0)
(2.09329e-06 0 0)
(8.76419e-07 0 0)
(3.56094e-07 0 0)
(1.27511e-07 0 0)
(2.08493e-08 0 0)
(-7.82276e-09 0 0)
(-3.77515e-08 0 0)
(-4.94218e-08 0 0)
(-4.99395e-08 0 0)
(-4.78653e-08 0 0)
(-6.21014e-08 0 0)
(-5.21266e-08 0 0)
(-5.1968e-08 0 0)
(-5.4865e-08 0 0)
(-5.51385e-08 0 0)
(-4.23893e-08 0 0)
(-4.43064e-08 0 0)
(-4.1348e-08 0 0)
(-4.40577e-08 0 0)
(-3.21795e-08 0 0)
(-3.03077e-08 0 0)
(-2.15624e-08 0 0)
(-2.38518e-08 0 0)
(-3.55472e-09 0 0)
(-1.47888e-08 0 0)
(8.8169e-09 0 0)
(9.70733e-09 0 0)
(1.48466e-08 0 0)
(1.48831e-08 0 0)
(2.05537e-08 0 0)
(1.82899e-08 0 0)
(2.43586e-08 0 0)
(2.18439e-08 0 0)
(2.70037e-08 0 0)
(3.30164e-08 0 0)
(2.85493e-08 0 0)
(3.97413e-08 0 0)
(3.3253e-08 0 0)
(3.7748e-08 0 0)
(2.73807e-08 0 0)
(3.80576e-08 0 0)
(3.36809e-08 0 0)
(3.57786e-08 0 0)
(2.60754e-08 0 0)
(3.83013e-08 0 0)
(2.55689e-08 0 0)
(3.59068e-08 0 0)
(1.89555e-08 0 0)
(3.39492e-08 0 0)
(2.62966e-08 0 0)
(4.32586e-08 0 0)
(3.51487e-08 0 0)
(4.04017e-08 0 0)
(4.64996e-08 0 0)
(3.67182e-08 0 0)
(3.85636e-08 0 0)
(2.84937e-08 0 0)
(3.4114e-08 0 0)
(3.63182e-08 0 0)
(3.59466e-08 0 0)
(2.61407e-08 0 0)
(3.35148e-08 0 0)
(4.26497e-08 0 0)
(3.99945e-08 0 0)
(3.74586e-08 0 0)
(3.87384e-08 0 0)
(4.18907e-08 0 0)
(3.77989e-08 0 0)
(3.85155e-08 0 0)
(3.8643e-08 0 0)
(3.35116e-08 0 0)
(3.42608e-08 0 0)
(2.68709e-08 0 0)
(3.90915e-08 0 0)
(2.59645e-08 0 0)
(3.91799e-08 0 0)
(2.27512e-08 0 0)
(3.50924e-08 0 0)
(1.81199e-08 0 0)
(3.29334e-08 0 0)
(2.72502e-08 0 0)
(3.24397e-08 0 0)
(4.01352e-08 0 0)
(2.94867e-08 0 0)
(4.67733e-08 0 0)
(2.58768e-08 0 0)
(3.40949e-08 0 0)
(1.81645e-08 0 0)
(2.27919e-08 0 0)
(1.09248e-08 0 0)
(1.44911e-08 0 0)
(8.7605e-09 0 0)
(2.42192e-08 0 0)
(1.20436e-08 0 0)
(1.55653e-08 0 0)
(1.85326e-08 0 0)
(3.16439e-08 0 0)
(2.14934e-08 0 0)
(2.82001e-08 0 0)
(2.45899e-08 0 0)
(2.34341e-08 0 0)
(2.20667e-08 0 0)
(1.84467e-08 0 0)
(1.87721e-08 0 0)
(1.65492e-08 0 0)
(1.98767e-08 0 0)
(1.42299e-08 0 0)
(2.84246e-08 0 0)
(2.9142e-08 0 0)
(2.48019e-08 0 0)
(2.42894e-08 0 0)
(1.73236e-08 0 0)
(1.6432e-08 0 0)
(8.71811e-09 0 0)
(1.08286e-08 0 0)
(6.36501e-09 0 0)
(1.07667e-08 0 0)
(6.46341e-09 0 0)
(8.86457e-09 0 0)
(5.63436e-09 0 0)
(4.85931e-09 0 0)
(2.25054e-09 0 0)
(6.0813e-10 0 0)
(7.24412e-09 0 0)
(-1.51356e-09 0 0)
(6.26569e-09 0 0)
(-2.87281e-09 0 0)
(2.57935e-09 0 0)
(-5.72926e-09 0 0)
(-3.56262e-09 0 0)
(-1.31226e-08 0 0)
(-1.08817e-08 0 0)
(-1.97041e-08 0 0)
(-1.95075e-08 0 0)
(-1.61811e-08 0 0)
(-2.66013e-08 0 0)
(-6.93285e-09 0 0)
(-1.29471e-08 0 0)
(-1.07045e-08 0 0)
(-1.95594e-08 0 0)
(-1.53633e-08 0 0)
(-6.89974e-09 0 0)
(-5.34356e-09 0 0)
(-1.06519e-08 0 0)
(-5.64208e-09 0 0)
(2.26303e-09 0 0)
(1.01805e-09 0 0)
(-1.2816e-09 0 0)
(-4.76898e-09 0 0)
(-2.67043e-09 0 0)
(-6.91634e-09 0 0)
(-7.75675e-09 0 0)
(-9.58473e-09 0 0)
(-1.23368e-08 0 0)
(-1.39522e-08 0 0)
(-1.65073e-08 0 0)
(-1.54393e-08 0 0)
(-6.89037e-09 0 0)
(-5.80007e-09 0 0)
(-7.83166e-09 0 0)
(-6.15923e-09 0 0)
(-8.49958e-09 0 0)
(-5.61652e-09 0 0)
(-8.99415e-09 0 0)
(-6.10519e-09 0 0)
(-1.16644e-08 0 0)
(-7.39483e-09 0 0)
(-1.03833e-08 0 0)
(-6.77351e-09 0 0)
(-9.96078e-09 0 0)
(-7.97921e-09 0 0)
(-8.51922e-09 0 0)
(-1.08051e-08 0 0)
(-2.78502e-09 0 0)
(-1.46388e-08 0 0)
(5.26511e-09 0 0)
(-2.23677e-08 0 0)
(1.03298e-09 0 0)
(-1.08524e-08 0 0)
(1.48537e-09 0 0)
(-1.44422e-08 0 0)
(2.91791e-09 0 0)
(-1.63373e-08 0 0)
(3.24362e-09 0 0)
(-2.66066e-09 0 0)
(6.05435e-09 0 0)
(8.46565e-09 0 0)
(9.94672e-09 0 0)
(1.43593e-08 0 0)
(9.68732e-09 0 0)
(1.54041e-08 0 0)
(1.05594e-08 0 0)
(3.35032e-08 0 0)
(1.26285e-08 0 0)
(2.68109e-08 0 0)
(1.23088e-08 0 0)
(1.97735e-08 0 0)
(1.07275e-08 0 0)
(1.57736e-08 0 0)
(1.29439e-08 0 0)
(2.17396e-08 0 0)
(1.75939e-08 0 0)
(1.87292e-08 0 0)
(2.07732e-08 0 0)
(1.98037e-08 0 0)
(2.06996e-08 0 0)
(2.03843e-08 0 0)
(1.93907e-08 0 0)
(1.2483e-08 0 0)
(1.17258e-08 0 0)
(2.16143e-09 0 0)
(5.19726e-09 0 0)
(2.29327e-09 0 0)
(1.40543e-09 0 0)
(2.40433e-09 0 0)
(-1.25159e-09 0 0)
(1.07263e-08 0 0)
(-4.13173e-09 0 0)
(2.7458e-09 0 0)
(1.53876e-10 0 0)
(-3.95815e-09 0 0)
(-1.10819e-09 0 0)
(-9.42708e-09 0 0)
(4.95953e-09 0 0)
(9.8774e-09 0 0)
(7.41425e-09 0 0)
(8.76104e-09 0 0)
(1.13002e-08 0 0)
(1.97513e-08 0 0)
(1.96113e-08 0 0)
(2.5135e-08 0 0)
(2.41663e-08 0 0)
(2.81761e-08 0 0)
(2.4889e-08 0 0)
(2.83674e-08 0 0)
(2.40049e-08 0 0)
(2.63764e-08 0 0)
(2.27584e-08 0 0)
(2.15051e-08 0 0)
(1.99475e-08 0 0)
(1.81177e-08 0 0)
(1.65366e-08 0 0)
(1.35596e-08 0 0)
(1.34396e-08 0 0)
(8.51794e-09 0 0)
(1.03887e-08 0 0)
(1.52451e-08 0 0)
(5.09895e-09 0 0)
(8.84459e-09 0 0)
(5.1113e-09 0 0)
(4.47756e-09 0 0)
(1.82298e-10 0 0)
(2.54101e-09 0 0)
(-3.03913e-09 0 0)
(1.48989e-08 0 0)
(1.89931e-08 0 0)
(1.79874e-08 0 0)
(1.46083e-08 0 0)
(1.55327e-08 0 0)
(1.9212e-08 0 0)
(1.64185e-08 0 0)
(1.58135e-08 0 0)
(1.44642e-08 0 0)
(1.11701e-08 0 0)
(1.08771e-08 0 0)
(6.31876e-09 0 0)
(8.35983e-09 0 0)
(1.78151e-10 0 0)
(6.64709e-09 0 0)
(1.13216e-08 0 0)
(5.50943e-09 0 0)
(8.45326e-09 0 0)
(2.67248e-09 0 0)
(5.75646e-09 0 0)
(-1.58938e-09 0 0)
(7.9383e-10 0 0)
(-5.64973e-09 0 0)
(-1.92535e-09 0 0)
(-7.62945e-09 0 0)
(-6.64038e-09 0 0)
(-6.83729e-09 0 0)
(-1.09113e-08 0 0)
(-6.72342e-09 0 0)
(-1.97216e-09 0 0)
(-5.5931e-09 0 0)
(-4.39829e-09 0 0)
(-1.03865e-08 0 0)
(-9.11021e-09 0 0)
(-1.19542e-08 0 0)
(-7.59678e-09 0 0)
(-4.54882e-09 0 0)
(-9.2977e-09 0 0)
(-7.81484e-09 0 0)
(-1.32594e-08 0 0)
(-1.00151e-08 0 0)
(-1.44824e-08 0 0)
(-9.48022e-09 0 0)
(-1.54925e-08 0 0)
(-1.27971e-08 0 0)
(-2.02375e-08 0 0)
(-1.35435e-08 0 0)
(-2.7401e-08 0 0)
(-1.68193e-08 0 0)
(-1.36983e-08 0 0)
(-2.05259e-08 0 0)
(-1.94518e-08 0 0)
(-2.47081e-08 0 0)
(-2.22171e-08 0 0)
(-2.74644e-08 0 0)
(-2.55083e-08 0 0)
(-3.15875e-08 0 0)
(-2.85661e-08 0 0)
(-2.85844e-08 0 0)
(-2.66896e-08 0 0)
(-2.55327e-08 0 0)
(-2.68194e-08 0 0)
(-1.21144e-08 0 0)
(-2.28357e-08 0 0)
(-9.67451e-09 0 0)
(-2.29035e-08 0 0)
(-1.45605e-08 0 0)
(-1.52896e-08 0 0)
(-1.80945e-08 0 0)
(-1.79476e-08 0 0)
(-1.38017e-08 0 0)
(-4.6567e-09 0 0)
(-9.52324e-09 0 0)
(-6.18352e-09 0 0)
(-7.77307e-09 0 0)
(6.6191e-09 0 0)
(-1.14603e-08 0 0)
(4.07118e-09 0 0)
(-1.12688e-08 0 0)
(1.61328e-09 0 0)
(-3.24043e-09 0 0)
(-1.97157e-09 0 0)
(-3.73085e-09 0 0)
(-5.09279e-09 0 0)
(-9.33151e-09 0 0)
(-7.42584e-09 0 0)
(-1.7808e-08 0 0)
(-7.36528e-09 0 0)
(-1.18624e-08 0 0)
(-5.85182e-09 0 0)
(-1.81966e-08 0 0)
(-1.108e-08 0 0)
(-1.20067e-08 0 0)
(-1.04506e-08 0 0)
(7.57089e-09 0 0)
(-1.08398e-08 0 0)
(1.22103e-08 0 0)
(1.0678e-09 0 0)
(1.14112e-08 0 0)
(-2.69497e-09 0 0)
(1.08974e-08 0 0)
(4.44577e-09 0 0)
(7.08111e-09 0 0)
(4.61566e-09 0 0)
(7.62058e-09 0 0)
(1.00786e-08 0 0)
(9.55945e-09 0 0)
(1.86113e-08 0 0)
(1.58047e-08 0 0)
(1.96828e-08 0 0)
(1.72382e-08 0 0)
(1.59618e-08 0 0)
(1.66725e-08 0 0)
(1.92513e-08 0 0)
(1.62625e-08 0 0)
(1.56336e-08 0 0)
(1.08102e-08 0 0)
(1.01751e-08 0 0)
(4.83145e-09 0 0)
(2.41652e-09 0 0)
)
;

boundaryField
{
    sides
    {
        type            fixedValue;
        value           uniform (0 0 0);
    }
    empty1
    {
        type            empty;
    }
    empty2
    {
        type            empty;
    }
}


// ************************************************************************* //
