/*--------------------------------*- C++ -*----------------------------------*\
| =========                 |                                                 |
| \\      /  F ield         | OpenFOAM: The Open Source CFD Toolbox           |
|  \\    /   O peration     | Version:  2312                                  |
|   \\  /    A nd           | Website:  www.openfoam.com                      |
|    \\/     M anipulation  |                                                 |
\*---------------------------------------------------------------------------*/
FoamFile
{
    version     2.0;
    format      ascii;
    arch        "LSB;label=32;scalar=64";
    class       surfaceScalarField;
    location    "5e-05";
    object      deltaRho_own;
}
// * * * * * * * * * * * * * * * * * * * * * * * * * * * * * * * * * * * * * //

dimensions      [1 0 -1 0 0 0 0];

oriented        oriented;

internalField   nonuniform List<scalar> 
799
(
-0
3.05007e-17
-0
9.1502e-17
-3.05007e-17
3.05007e-17
-6.10014e-17
3.05007e-17
-9.1502e-17
3.05007e-17
3.05007e-17
3.05007e-17
-3.05007e-17
-0
-0
-0
-0
3.05007e-17
-6.10014e-17
-0
-3.05007e-17
1.22003e-16
6.10014e-17
-3.05007e-17
-0
-3.05007e-17
-0
3.05007e-17
9.1502e-17
3.05007e-17
-6.10014e-17
3.05007e-17
-0
-0
3.05007e-17
-6.10014e-17
3.05007e-17
6.10014e-17
-0
-0
-0
6.10014e-17
6.10014e-17
6.10014e-17
-0
6.10014e-17
-9.1502e-17
3.05007e-17
-0
-0
-3.05007e-17
-0
-6.10014e-17
3.05007e-17
-0
6.10014e-17
-0
-3.05007e-17
-0
-6.10014e-17
3.05007e-17
-0
-3.05007e-17
3.05007e-17
3.05007e-17
-0
-6.10014e-17
-0
-3.05007e-17
3.05007e-17
-0
-3.05007e-17
6.10014e-17
3.05007e-17
-6.10014e-17
-3.05007e-17
-3.05007e-17
-0
3.05007e-17
-0
-0
-3.05007e-17
-6.10014e-17
3.05007e-17
-3.05007e-17
-3.05007e-17
-9.1502e-17
-3.05007e-17
-6.10014e-17
-6.10014e-17
3.05007e-17
-6.10014e-17
3.05007e-17
6.10014e-17
-3.05007e-17
9.1502e-17
-0
-6.10014e-17
-0
3.05007e-17
3.05007e-17
3.05007e-17
3.05007e-17
-0
-0
-0
3.05007e-17
-6.10014e-17
-3.05007e-17
3.05007e-17
-9.1502e-17
-0
6.10014e-17
6.10014e-17
-3.05007e-17
6.10014e-17
-3.05007e-17
-3.05007e-17
-0
9.1502e-17
-3.05007e-17
6.10014e-17
-0
-3.05007e-17
-3.05007e-17
3.05007e-17
3.05007e-17
9.1502e-17
3.05007e-17
-0
-3.05007e-17
-0
-0
-3.05007e-17
3.05007e-17
-0
-3.05007e-17
6.10014e-17
-9.1502e-17
3.05007e-17
6.10014e-17
-6.10014e-17
6.10014e-17
-0
-0
-3.05007e-17
-3.05007e-17
-3.05007e-17
3.05007e-17
-0
-3.05007e-17
-3.05007e-17
-0
-3.05007e-17
-0
6.10014e-17
-9.1502e-17
-0
-6.10014e-17
-3.05007e-17
3.05007e-17
-6.10014e-17
-0
-3.05007e-17
-6.10014e-17
-3.05007e-17
3.05007e-17
3.05007e-17
-0
9.1502e-17
-9.1502e-17
-0
-3.05007e-17
-0
-0
6.10014e-17
-0
-0
6.10014e-17
-3.05007e-17
6.10014e-17
-3.05007e-17
3.05007e-17
-3.05007e-17
3.05007e-17
-3.05007e-17
-0
6.10014e-17
-0
3.05007e-17
-0
3.05007e-17
3.05007e-17
6.10014e-17
-6.10014e-17
-0
-3.05007e-17
6.10014e-17
-6.10014e-17
3.05007e-17
-6.10014e-17
-3.05007e-17
-0
3.05007e-17
-3.05007e-17
6.10014e-17
-0
3.05007e-17
-1.22003e-16
-0
-1.22003e-16
6.10014e-17
-0
3.05007e-17
-0
6.10014e-17
-0
3.05007e-17
3.05007e-17
3.05007e-17
-0
3.05007e-17
-6.10014e-17
3.05007e-17
-3.05007e-17
-0
3.05007e-17
-6.10014e-17
3.05007e-17
3.05007e-17
9.1502e-17
-6.10014e-17
3.05007e-17
-3.05007e-17
-0
-0
6.10014e-17
-3.05007e-17
6.10014e-17
3.05007e-17
-6.10014e-17
-3.05007e-17
-0
-0
3.05007e-17
-3.05007e-17
6.10014e-17
-9.1502e-17
9.1502e-17
9.1502e-17
3.05007e-17
-0
-3.05007e-17
-3.05007e-17
3.05007e-17
3.05007e-17
3.05007e-17
3.05007e-17
9.1502e-17
3.05007e-17
-0
-3.05007e-17
3.05007e-17
3.05007e-17
-0
-0
-0
-0
3.05007e-17
3.05007e-17
-3.05007e-17
6.10014e-17
-0
-0
-3.05007e-17
3.05007e-17
3.05007e-17
-3.05007e-17
-9.1502e-17
-0
-0
3.05007e-17
9.1502e-17
-3.05007e-17
3.05007e-17
-0
-0
3.05007e-17
-0
-6.10014e-17
-0
-3.05007e-17
3.05007e-17
6.10014e-17
3.05007e-17
-0
3.05007e-17
3.05007e-17
-0
-0
-0
-3.05007e-17
-6.10014e-17
-0
-6.10014e-17
-6.10014e-17
-0
-0
-9.1502e-17
-3.05007e-17
-3.05007e-17
6.10014e-17
-0
6.10014e-17
-3.05007e-17
6.10014e-17
-0
6.10014e-17
-3.05007e-17
6.10014e-17
-9.1502e-17
6.10014e-17
-3.05007e-17
-0
-3.05007e-17
-6.10014e-17
-0
3.05007e-17
-3.05007e-17
-3.05007e-17
3.05007e-17
-3.05007e-17
-3.05007e-17
-3.05007e-17
-0
3.05007e-17
-0
3.05007e-17
-0
-0
-0
3.05007e-17
3.05007e-17
-0
-6.10014e-17
-3.05007e-17
9.1502e-17
3.05007e-17
3.05007e-17
-6.10014e-17
6.10014e-17
-9.1502e-17
3.05007e-17
-3.05006e-17
3.05005e-17
6.10004e-17
-1.21998e-16
3.04978e-17
-0
-1.21947e-16
1.20481e-11
1.3854e-11
1.79326e-11
2.04255e-11
1.9971e-11
1.59423e-11
8.87823e-12
-5.68404e-12
-1.14373e-11
-9.76692e-12
-1.92309e-11
-1.93267e-11
-1.47508e-11
-1.48134e-11
-5.92089e-12
-3.09303e-12
7.42717e-18
2.38423e-12
3.73279e-12
2.36217e-12
1.16088e-12
3.34109e-13
-2.87962e-13
-8.87624e-13
2.67063e-18
-2.16228e-12
-1.31583e-12
-9.78984e-13
4.25704e-13
3.4965e-12
-7.99252e-13
2.57978e-14
-2.87121e-14
-1.36794e-13
2.87624e-13
-3.29046e-12
-1.14972e-11
2.67829e-11
-0.00208457
72.5149
9.32491e-07
9.60144e-10
-4.53615e-08
1.34077e-09
-3.33395e-14
1.4741e-10
-1.96878e-09
2.13038e-09
-2.25048e-13
3.87497e-10
2.25871e-12
6.9065e-10
-6.95269e-10
-0
-6.80732e-09
6.8077e-09
-1.28765e-09
1.22015e-09
1.13265e-11
-5.89289e-09
-1.71155e-09
1.06763e-08
-1.03794e-08
3.8784e-10
-6.64899e-10
-9.30665e-10
2.22664e-08
-1.28952e-08
3.23567e-09
-1.28437e-09
1.22063e-09
-2.17302e-10
-1.58766e-08
-7.58809e-10
2.2721e-08
-3.02017e-08
9.07102e-09
2.06494e-08
-1.0146e-08
-2.25918e-08
1.27391e-08
1.82425e-08
-9.8577e-09
-1.20292e-09
-1.65411e-08
4.05882e-09
1.49097e-08
-1.32611e-08
2.56197e-09
-0
-2.8368e-09
2.77032e-08
-1.53799e-08
3.41057e-09
-3.56056e-09
3.6115e-09
-1.20387e-09
-2.52696e-09
-1.80449e-08
1.28182e-08
-1.04662e-08
-3.55795e-11
1.05687e-08
-0
-5.24182e-09
-2.6172e-09
6.84255e-12
1.00079e-08
-6.49394e-10
6.6988e-10
-8.81516e-10
8.57604e-10
8.33443e-15
-8.48637e-09
1.53744e-09
-2.00539e-09
1.86235e-08
-2.19412e-08
5.76167e-10
3.33994e-10
1.12873e-10
8.33443e-15
7.61433e-11
3.06207e-11
3.20542e-11
-1.71022e-11
1.71273e-11
3.62463e-11
-3.62631e-11
-0
-3.41711e-13
-2.17029e-11
-8.70948e-12
-3.41712e-12
-4.83314e-11
-4.0947e-11
-8.33443e-15
6.31832e-11
6.85089e-12
-1.66689e-14
-2.532e-11
-4.50643e-11
-6.94258e-12
-6.93424e-12
-0
8.33443e-15
-0
6.8509e-12
-0
-8.33443e-15
-2.19696e-11
-1.66689e-14
-1.98526e-11
-1.98693e-11
-0
-1.66689e-14
7.1401e-11
6.83423e-12
-3.41712e-12
-6.83423e-12
-0
-8.33443e-15
-2.73619e-11
2.73869e-11
1.93025e-11
-0
-1.52937e-11
-0
-1.66689e-14
-1.03097e-11
-2.46532e-11
8.33443e-15
8.33441e-15
-1.03097e-11
-4.94815e-11
8.33443e-15
1.2635e-11
-1.16349e-11
-1.42685e-11
-0
8.33443e-15
3.44212e-12
2.50033e-14
8.33443e-12
1.63188e-11
2.0411e-11
1.66689e-14
-1.66689e-14
-8.33443e-15
-2.24113e-11
-1.67605e-11
3.70882e-12
-1.39352e-11
1.75913e-09
-3.97096e-09
3.89264e-09
-9.76712e-11
7.70185e-11
-2.00416e-08
2.00132e-08
-1.77034e-08
-1.43788e-09
2.19058e-08
-2.07527e-11
8.33443e-15
-1.72561e-08
-5.02932e-10
1.86137e-08
-2.93539e-11
6.48252e-11
-0
1.66689e-14
-2.99206e-12
-1.20181e-09
-1.94289e-08
-1.66689e-14
-4.60894e-12
-8.33443e-15
8.33443e-15
-7.39264e-12
1.66689e-14
-2.12423e-08
-2.71443e-10
2.22182e-08
-3.64881e-11
-1.66689e-14
-2.3497e-09
2.36413e-09
-4.88731e-11
-0
-0
-8.14107e-11
1.20332e-10
-1.72451e-09
1.76967e-09
-3.66333e-09
3.61275e-09
-2.02864e-08
1.577e-08
-1.21281e-08
1.66787e-08
-3.41295e-11
-2.04504e-08
-1.36685e-11
1.66689e-14
5.14234e-12
5.15068e-12
-8.33443e-15
-3.50046e-11
-3.49713e-11
-3.43879e-11
-2.75703e-11
-1.88516e-08
-0
-0
-1.66689e-14
-0
-1.66689e-14
-0
-6.84257e-12
-1.18099e-11
1.66689e-14
-0
8.33443e-15
2.44532e-11
-1.66688e-14
-0
1.66689e-14
-8.33443e-15
-9.81796e-12
8.33443e-15
-0
-2.70619e-11
-3.00039e-12
-0
-0
1.66689e-14
-1.01097e-11
-2.97372e-11
-0
9.33456e-12
-3.33377e-14
-6.16081e-11
6.15831e-11
-8.33443e-15
-0
-8.33443e-15
-9.24788e-11
5.8666e-11
-2.01276e-11
-3.50879e-11
-1.66689e-14
3.5613e-11
-1.66688e-14
-9.95128e-12
-0
1.66689e-14
1.66689e-14
6.81756e-12
-6.83423e-12
-2.76536e-11
2.76786e-11
2.14028e-11
2.72953e-11
1.12515e-11
-5.33403e-12
-0
3.13375e-12
2.39448e-11
-9.37623e-12
-8.33443e-15
-6.83423e-12
-4.64228e-11
-4.16721e-14
-1.48436e-11
8.33443e-15
-1.36185e-11
-0
1.35434e-11
-1.0718e-11
5.98412e-12
-1.5352e-11
-1.31684e-11
-0
2.50033e-14
-1.41685e-12
8.33443e-15
-2.15862e-12
-5.5424e-12
-2.50033e-14
1.05597e-11
-1.66688e-14
1.66689e-14
8.33443e-15
-0
3.42545e-12
-2.12695e-11
-1.66689e-14
2.45032e-12
-8.33443e-15
-1.36268e-11
-8.33443e-15
3.33377e-14
-1.89476e-09
-1.17626e-08
-1.36851e-11
-5.79576e-11
-1.40278e-08
-2.50033e-14
-4.17222e-11
-0
-2.38781e-11
4.09887e-11
-1.08181e-11
-2.25011e-08
2.25378e-08
-2.522e-11
-7.51599e-11
-1.36851e-11
9.52959e-11
-1.60966e-09
1.62618e-09
-1.43519e-11
-1.08811e-09
-2.1522e-10
1.75747e-09
7.75102e-13
-2.3504e-08
2.35115e-08
-1.91316e-09
1.89722e-09
1.36435e-11
-6.83423e-12
-1.61256e-09
1.58026e-09
-3.51796e-11
-2.03846e-09
1.98996e-09
1.38768e-11
-2.05002e-09
-1.38739e-08
2.00337e-08
-4.37558e-12
-4.09804e-11
3.40878e-12
-2.04081e-08
2.04641e-08
-3.41712e-11
1.5202e-11
-2.02906e-08
1.75328e-08
-1.08296e-09
-9.81795e-12
-1.56296e-08
1.97945e-08
-1.02347e-11
-1.12498e-10
1.05881e-10
-2.26096e-08
2.26233e-08
-2.91622e-11
1.61688e-12
2.47949e-11
-7.91825e-09
7.91916e-09
-2.12497e-09
-1.36587e-08
1.37462e-08
2.00538e-09
5.76242e-11
-2.50077e-08
2.50326e-08
-2.10544e-08
1.69657e-08
-0
1.17515e-11
-1.17599e-11
-1.23266e-11
1.99193e-12
1.04014e-11
-0
-2.5195e-11
6.67588e-12
8.33443e-15
-0
-8.33443e-15
1.66689e-14
2.09444e-11
2.96789e-11
-0
-5.27486e-11
4.8098e-11
3.09207e-11
-6.83423e-12
-1.66689e-14
-5.70075e-12
-6.83423e-12
-5.90911e-12
3.43378e-12
)
;

boundaryField
{
    sides
    {
        type            calculated;
        value           uniform -0;
    }
    empty1
    {
        type            empty;
        value           nonuniform List<scalar> 0();
    }
    empty2
    {
        type            empty;
        value           nonuniform List<scalar> 0();
    }
}


// ************************************************************************* //
