/*--------------------------------*- C++ -*----------------------------------*\
| =========                 |                                                 |
| \\      /  F ield         | OpenFOAM: The Open Source CFD Toolbox           |
|  \\    /   O peration     | Version:  2312                                  |
|   \\  /    A nd           | Website:  www.openfoam.com                      |
|    \\/     M anipulation  |                                                 |
\*---------------------------------------------------------------------------*/
FoamFile
{
    version     2.0;
    format      ascii;
    arch        "LSB;label=32;scalar=64";
    class       surfaceScalarField;
    location    "5e-05";
    object      deltaRho_nei;
}
// * * * * * * * * * * * * * * * * * * * * * * * * * * * * * * * * * * * * * //

dimensions      [1 0 -1 0 0 0 0];

oriented        oriented;

internalField   nonuniform List<scalar> 
799
(
-3.05007e-17
-0
-9.1502e-17
3.05007e-17
-3.05007e-17
6.10014e-17
-3.05007e-17
9.1502e-17
-3.05007e-17
-3.05007e-17
-3.05007e-17
3.05007e-17
-0
-0
-0
-0
-3.05007e-17
6.10014e-17
-0
3.05007e-17
-0
-6.10014e-17
3.05007e-17
3.05007e-17
3.05007e-17
-0
-3.05007e-17
-9.1502e-17
-3.05007e-17
6.10014e-17
-3.05007e-17
-3.05007e-17
6.10014e-17
-3.05007e-17
6.10014e-17
1.22003e-16
-3.05007e-17
-0
-0
-0
-6.10014e-17
-6.10014e-17
-6.10014e-17
-0
-6.10014e-17
9.1502e-17
-3.05007e-17
-0
-0
3.05007e-17
-0
6.10014e-17
-6.10014e-17
-0
-0
-0
3.05007e-17
-0
6.10014e-17
-3.05007e-17
-0
3.05007e-17
-3.05007e-17
-3.05007e-17
-0
6.10014e-17
-0
9.1502e-17
-3.05007e-17
-0
3.05007e-17
-6.10014e-17
-3.05007e-17
6.10014e-17
3.05007e-17
3.05007e-17
-0
-3.05007e-17
-0
-0
3.05007e-17
6.10014e-17
-3.05007e-17
3.05007e-17
3.05007e-17
9.1502e-17
3.05007e-17
6.10014e-17
6.10014e-17
-3.05007e-17
6.10014e-17
6.10014e-17
-6.10014e-17
3.05007e-17
-9.1502e-17
-0
6.10014e-17
-0
-3.05007e-17
-3.05007e-17
-3.05007e-17
-3.05007e-17
-0
-0
3.05007e-17
-3.05007e-17
-3.05007e-17
3.05007e-17
-3.05007e-17
9.1502e-17
-0
-6.10014e-17
-6.10014e-17
3.05007e-17
-6.10014e-17
3.05007e-17
3.05007e-17
-0
-9.1502e-17
3.05007e-17
-6.10014e-17
3.05007e-17
3.05007e-17
3.05007e-17
-0
-3.05007e-17
-9.1502e-17
-3.05007e-17
-0
3.05007e-17
-0
-0
-0
-3.05007e-17
-0
3.05007e-17
-6.10014e-17
9.1502e-17
-3.05007e-17
-6.10014e-17
6.10014e-17
-6.10014e-17
-0
-0
3.05007e-17
3.05007e-17
3.05007e-17
-9.1502e-17
-0
3.05007e-17
3.05007e-17
-0
3.05007e-17
-0
-6.10014e-17
-3.05007e-17
-0
6.10014e-17
3.05007e-17
-3.05007e-17
6.10014e-17
-0
3.05007e-17
6.10014e-17
3.05007e-17
-0
-3.05007e-17
-0
-9.1502e-17
9.1502e-17
-0
3.05007e-17
-0
-0
-6.10014e-17
-0
-0
-6.10014e-17
3.05007e-17
-6.10014e-17
3.05007e-17
-3.05007e-17
3.05007e-17
-3.05007e-17
3.05007e-17
-0
-6.10014e-17
-0
-6.10014e-17
-0
-3.05007e-17
-3.05007e-17
-6.10014e-17
6.10014e-17
-0
3.05007e-17
-6.10014e-17
6.10014e-17
-3.05007e-17
6.10014e-17
3.05007e-17
-0
-3.05007e-17
3.05007e-17
-6.10014e-17
-0
-3.05007e-17
1.22003e-16
-0
1.22003e-16
-6.10014e-17
-0
-3.05007e-17
-0
-6.10014e-17
-0
-3.05007e-17
-3.05007e-17
-3.05007e-17
-0
-3.05007e-17
6.10014e-17
-3.05007e-17
3.05007e-17
-0
-3.05007e-17
-0
-3.05007e-17
-3.05007e-17
-9.1502e-17
6.10014e-17
-3.05007e-17
3.05007e-17
-0
-0
-6.10014e-17
3.05007e-17
-6.10014e-17
-3.05007e-17
6.10014e-17
3.05007e-17
-0
-0
-3.05007e-17
3.05007e-17
-6.10014e-17
9.1502e-17
-9.1502e-17
-9.1502e-17
-3.05007e-17
-6.10014e-17
3.05007e-17
3.05007e-17
-3.05007e-17
-3.05007e-17
-3.05007e-17
-3.05007e-17
-9.1502e-17
-3.05007e-17
-0
3.05007e-17
-3.05007e-17
-3.05007e-17
-0
3.05007e-17
-0
-0
-3.05007e-17
-3.05007e-17
3.05007e-17
3.05007e-17
6.10014e-17
-0
3.05007e-17
-3.05007e-17
-3.05007e-17
3.05007e-17
3.05007e-17
-0
-0
-3.05007e-17
-9.1502e-17
3.05007e-17
-3.05007e-17
-0
-0
-3.05007e-17
-0
6.10014e-17
-9.1502e-17
3.05007e-17
-3.05007e-17
-6.10014e-17
-3.05007e-17
-0
-3.05007e-17
-3.05007e-17
-0
-0
-0
3.05007e-17
6.10014e-17
-0
6.10014e-17
6.10014e-17
-0
-0
9.1502e-17
3.05007e-17
3.05007e-17
-6.10014e-17
-0
-6.10014e-17
3.05007e-17
-6.10014e-17
-0
-6.10014e-17
3.05007e-17
-6.10014e-17
9.1502e-17
-6.10014e-17
3.05007e-17
-0
3.05007e-17
6.10014e-17
-0
-3.05007e-17
-3.05007e-17
3.05007e-17
-3.05007e-17
3.05007e-17
3.05007e-17
3.05007e-17
-0
-3.05007e-17
-0
-3.05007e-17
-0
-0
-0
-0
-3.05007e-17
-3.05007e-17
-0
6.10014e-17
-0
-3.05007e-17
-6.10014e-17
-0
-0
-0
6.10013e-17
3.05007e-17
-0
-3.05005e-17
3.05002e-17
6.0999e-17
3.04978e-17
3.04942e-17
-4.01794e-12
-9.97692e-12
-1.3928e-11
-1.74403e-11
-1.92937e-11
-1.84119e-11
-1.43992e-11
-5.77889e-12
3.90171e-12
8.44145e-12
1.26527e-11
1.72397e-11
1.43441e-11
1.47508e-11
9.20076e-12
5.92089e-12
-3.49174e-17
2.9348e-12
-4.68314e-12
-4.34195e-12
-2.28328e-12
-1.40869e-12
-3.24384e-13
2.87962e-13
-3.07144e-18
1.60298e-12
2.83073e-12
1.31583e-12
4.13304e-12
-4.25704e-13
4.14443e-12
3.93465e-14
-1.25591e-13
1.85336e-13
1.43884e-13
-2.98899e-12
7.6105e-12
6.21275e-13
-0.00157476
0.0278851
4.87558e-07
6.6408e-07
-9.60144e-10
1.10144e-09
-2.77085e-09
3.33395e-14
1.97127e-09
-2.43346e-09
-6.66826e-14
-8.54433e-11
6.25616e-09
6.88357e-10
-2.07871e-09
1.39047e-09
6.80775e-09
-6.80793e-09
1.28767e-09
-1.21267e-09
1.25487e-09
6.34598e-09
-7.52596e-12
-1.06839e-08
1.03718e-08
-3.72456e-10
-3.8784e-10
-7.70929e-12
6.15459e-10
-1.08293e-08
1.029e-09
1.28433e-09
-1.22065e-09
1.02335e-09
4.0005e-12
-4.01717e-12
7.58809e-10
-1.09851e-08
9.42922e-09
3.58152e-10
-1.01455e-08
-1.66687e-14
1.13002e-08
-1.66687e-14
-9.84485e-09
4.2922e-12
4.2922e-12
7.26901e-09
-1.49186e-08
1.32522e-08
-2.55305e-09
1.06268e-09
-1.06268e-09
1.42286e-09
-1.31446e-08
1.11321e-09
-1.14426e-09
1.21246e-09
-1.20382e-09
-6.6675e-13
-1.00013e-13
-1.28252e-08
1.05263e-08
-1.78023e-11
-1.05755e-08
-0
7.87271e-09
-6.86757e-12
-4.75119e-10
-9.54647e-09
6.49377e-10
-6.6983e-10
8.81483e-10
-8.57588e-10
7.89179e-10
7.69716e-09
-1.53741e-09
2.00537e-09
-9.11343e-10
1.17402e-09
5.76226e-10
2.34492e-08
-3.53584e-09
3.64873e-09
7.60933e-11
-2.13285e-08
1.7623e-08
1.24351e-09
1.70939e-11
-1.82174e-08
-6.75104e-10
2.00541e-08
-1.27808e-09
-1.88049e-08
2.27137e-08
1.66689e-14
-1.52422e-09
1.43491e-09
-1.36601e-11
-2.18142e-09
-1.58486e-08
1.65045e-08
2.02111e-09
-1.37746e-09
1.05215e-09
-2.00211e-09
2.25482e-09
-2.3737e-08
2.3737e-08
-2.52812e-08
2.52744e-08
-2.28009e-08
2.27789e-08
8.33443e-15
-2.84178e-09
2.80207e-09
-0
-0
-1.97503e-09
-1.39149e-08
1.34537e-08
2.1899e-09
-2.24524e-08
9.36087e-10
1.96578e-08
2.73536e-11
-2.15243e-08
1.21555e-08
3.1141e-09
8.33443e-15
1.66689e-14
1.66689e-14
-4.65345e-10
4.50968e-10
-2.10312e-08
9.22427e-10
1.82247e-08
-1.66689e-14
1.25933e-11
-4.57977e-11
1.98776e-11
2.50033e-14
-8.33443e-15
3.41712e-12
-1.76288e-09
1.50473e-09
-1.18625e-09
1.48949e-09
-2.0635e-09
2.0635e-09
-2.37848e-08
2.37624e-08
-5.77409e-11
4.47309e-11
-2.08111e-11
-1.71873e-09
-2.84371e-11
-1.56687e-11
-1.56937e-11
-2.54617e-11
-2.16695e-11
6.8259e-12
1.05681e-11
-4.0572e-11
-1.66688e-14
-2.07527e-11
-0
-8.33443e-15
-4.85564e-11
3.55046e-11
-2.93539e-11
6.48419e-11
-1.9569e-08
9.49406e-09
3.35529e-09
2.46782e-11
8.33443e-15
1.66688e-14
2.31038e-08
8.33443e-15
-1.16165e-10
1.08789e-10
-1.66689e-14
3.48879e-11
6.33417e-11
-6.33581e-11
-3.64631e-11
1.66689e-14
1.44352e-11
8.33443e-15
-4.88731e-11
-2.50033e-14
-0
3.47379e-11
1.78357e-11
3.14708e-11
8.33443e-15
-9.50125e-13
-1.5452e-11
6.8259e-12
8.33443e-15
-6.85923e-12
8.33442e-15
-3.41462e-11
2.0461e-11
-1.36685e-11
2.04709e-08
-2.06515e-09
2.04132e-09
-2.93809e-09
2.93726e-09
-2.08066e-08
2.0703e-08
-2.07786e-08
1.65284e-08
-0
2.30879e-08
-2.16667e-08
2.16735e-08
-2.34227e-08
2.33954e-08
-1.09331e-10
1.31676e-10
-1.66689e-14
-0
-8.33443e-15
-2.3226e-09
-1.2521e-08
1.07616e-09
1.62175e-08
-1.82433e-09
1.93069e-09
-1.33251e-10
-3.24213e-09
3.45075e-09
5.16485e-11
-0
8.33443e-15
-8.33443e-15
-2.08045e-09
2.04061e-09
-2.04709e-08
2.04803e-08
-2.37028e-08
2.36412e-08
5.8191e-11
-2.22098e-08
2.22201e-08
-2.8219e-09
2.71921e-09
6.21165e-11
-2.1721e-08
2.15974e-08
-8.33443e-15
7.65934e-11
-1.70204e-08
-9.90961e-12
-5.94443e-10
1.97193e-08
-4.85128e-09
4.82395e-09
-3.78536e-09
3.78501e-09
2.42365e-11
-2.48549e-10
2.25513e-10
3.85801e-11
-3.96832e-09
3.963e-09
-1.73439e-11
2.39615e-11
-3.93818e-09
3.94934e-09
-2.41128e-08
2.40732e-08
-3.42545e-12
-1.62397e-09
1.20939e-09
1.23033e-10
-0
-1.09336e-09
-1.65596e-08
1.24614e-09
1.61202e-08
-3.36211e-11
3.41712e-11
-1.31875e-09
1.30706e-09
3.40878e-12
-2.68635e-10
2.60934e-10
-0
1.05764e-11
-2.22133e-08
1.77002e-08
1.46561e-09
-2.02045e-08
1.62312e-08
1.33846e-09
8.33443e-15
2.45866e-12
-2.73203e-11
1.36518e-11
-1.66689e-14
-1.66689e-14
4.76729e-12
3.42545e-12
1.36851e-11
1.73724e-08
-1.60583e-09
2.50033e-14
1.90558e-08
-6.66754e-14
3.46712e-12
1.36685e-11
-1.07931e-11
7.43098e-11
8.33443e-15
-2.86788e-11
1.66689e-14
-6.83423e-12
-3.91718e-13
-1.08181e-11
-0
-1.43102e-11
1.87858e-11
-1.02347e-11
4.82563e-12
-2.61701e-12
7.47598e-12
-0
-0
4.54226e-12
6.83423e-12
-6.80923e-12
8.33443e-15
-3.22292e-11
-3.51963e-11
2.49699e-11
-2.22363e-11
-3.24209e-12
3.21709e-12
-0
-1.66688e-14
-4.36724e-12
-8.33443e-15
-3.39211e-12
2.18695e-11
-8.33443e-15
8.33443e-15
1.51687e-11
3.00123e-11
6.84257e-12
-1.66689e-14
-2.35448e-11
7.1426e-12
-0
-1.0218e-11
3.65048e-12
-3.43378e-12
-6.8259e-12
8.33443e-15
-5.25069e-12
5.04233e-12
-9.35956e-12
9.00118e-13
8.33443e-15
-0
8.33443e-15
3.63131e-11
-0
-3.84217e-12
7.0926e-12
1.7844e-11
1.7869e-11
6.85924e-12
-0
-1.73879e-08
-4.45632e-10
2.27886e-08
1.94192e-12
-1.17171e-09
-1.82093e-08
1.56047e-08
2.03602e-09
1.0243e-11
-2.12226e-08
2.12226e-08
-1.40758e-09
-1.97709e-10
2.07948e-09
-8.73226e-09
8.6932e-09
4.8098e-11
-1.58162e-09
1.28115e-09
3.0729e-11
3.53296e-11
-6.8509e-12
7.79269e-12
3.40878e-12
-6.86757e-12
)
;

boundaryField
{
    sides
    {
        type            calculated;
        value           uniform -0;
    }
    empty1
    {
        type            empty;
        value           nonuniform List<scalar> 0();
    }
    empty2
    {
        type            empty;
        value           nonuniform List<scalar> 0();
    }
}


// ************************************************************************* //
