/*--------------------------------*- C++ -*----------------------------------*\
| =========                 |                                                 |
| \\      /  F ield         | OpenFOAM: The Open Source CFD Toolbox           |
|  \\    /   O peration     | Version:  2312                                  |
|   \\  /    A nd           | Website:  www.openfoam.com                      |
|    \\/     M anipulation  |                                                 |
\*---------------------------------------------------------------------------*/
FoamFile
{
    version     2.0;
    format      ascii;
    arch        "LSB;label=32;scalar=64";
    class       surfaceScalarField;
    location    "5e-05";
    object      phi;
}
// * * * * * * * * * * * * * * * * * * * * * * * * * * * * * * * * * * * * * //

dimensions      [1 0 -1 0 0 0 0];

oriented        oriented;

internalField   nonuniform List<scalar> 
799
(
-2.38143e-14
-8.90954e-15
-3.87745e-14
4.48253e-14
-8.16014e-15
4.68237e-14
-1.57097e-14
4.15779e-14
-5.41234e-15
6.21725e-14
5.7454e-15
5.1209e-14
-4.54359e-14
-2.59237e-14
-6.42542e-14
-5.04319e-14
-7.72715e-14
1.90403e-14
-6.96665e-15
7.31082e-14
3.03646e-14
1.68476e-14
7.79099e-14
-9.85323e-15
-8.35443e-15
-9.57567e-15
-1.78746e-14
7.16094e-14
1.64591e-14
5.58165e-14
-4.39926e-14
-3.73312e-14
-5.19029e-15
2.68674e-14
4.20775e-14
-4.61298e-14
-3.7359e-14
-3.22797e-14
-1.34337e-14
-2.68396e-14
-5.65104e-14
1.40998e-14
-4.01901e-14
1.81521e-14
-3.55271e-14
2.70617e-14
-2.1233e-14
5.55667e-14
3.14471e-14
9.02334e-14
2.11497e-14
5.84255e-14
-3.16136e-14
-1.28508e-14
8.35443e-15
1.04916e-14
-1.14714e-13
-6.79179e-14
-1.07303e-13
-1.25455e-14
-3.23908e-14
5.26523e-14
1.93734e-14
9.12326e-14
3.66929e-14
8.71803e-14
-6.91114e-15
2.04559e-14
4.996e-15
-3.30291e-14
-3.88578e-14
-5.37348e-14
4.25493e-14
-7.68829e-15
4.63241e-14
-2.8838e-14
2.17881e-14
-4.7351e-14
-6.87506e-14
-9.71723e-14
3.52496e-15
-2.95874e-14
4.14113e-14
-8.79852e-15
4.86278e-14
-1.27398e-14
2.46192e-14
-5.85643e-14
-5.44009e-15
-5.07649e-14
2.53131e-14
-2.498e-15
6.54476e-14
1.01724e-13
-4.85723e-15
2.27041e-14
-4.35207e-14
1.24345e-14
-4.2355e-14
2.04836e-14
-3.22242e-14
2.86993e-14
-2.1011e-14
5.44009e-14
1.82632e-14
8.88178e-15
4.41036e-14
5.03764e-14
-4.82114e-14
-3.66374e-15
-6.14508e-14
-2.33147e-15
-5.7343e-14
1.38778e-16
-5.51781e-14
7.24421e-15
-4.1106e-14
1.75138e-14
-3.74145e-14
2.7256e-14
-7.02216e-15
9.29257e-14
6.64468e-14
-4.84057e-14
7.71605e-15
-1.113e-14
-4.26048e-14
3.78031e-14
-1.31561e-14
4.30211e-14
-2.42861e-14
1.52656e-15
-1.23984e-13
-1.23818e-13
5.16254e-15
-1.84852e-14
4.88498e-14
-7.52176e-15
4.68514e-14
-1.06026e-14
4.84335e-14
-8.32667e-16
5.75096e-14
-5.55112e-16
4.70179e-14
-2.65343e-14
1.80134e-14
-5.11535e-14
-1.11022e-14
3.90799e-14
-2.55074e-14
3.10307e-14
-2.04281e-14
4.67681e-14
-3.19189e-15
5.60385e-14
6.40876e-14
-3.76088e-14
1.80411e-15
-5.82867e-14
-2.77556e-16
-4.70179e-14
3.31124e-14
-6.82787e-15
4.82392e-14
-3.39451e-14
-4.72677e-14
4.31599e-14
-8.63198e-15
4.42146e-14
-3.65818e-14
1.49047e-14
-3.5888e-14
4.40481e-14
-5.13478e-15
4.72122e-14
-4.61853e-14
-6.23945e-14
3.39451e-14
-7.24421e-15
5.26523e-14
-4.91274e-15
4.28546e-14
-3.91076e-14
-3.88578e-15
-6.29219e-14
2.96985e-15
-2.98928e-14
4.74343e-14
7.85483e-15
-3.41671e-14
4.39093e-14
2.48135e-14
1.05305e-13
4.89886e-14
8.04912e-14
-2.35645e-14
9.74221e-15
-5.78704e-14
-6.32827e-15
-6.55864e-14
-9.15934e-15
-6.54199e-14
-5.13478e-15
-5.44842e-14
1.4877e-14
-3.48332e-14
2.38143e-14
-3.33622e-14
1.85685e-14
-3.84692e-14
2.12053e-14
-2.63956e-14
3.45834e-14
-2.18159e-14
3.13083e-14
-3.55271e-14
1.6237e-14
-4.04676e-14
1.89571e-14
-3.01981e-14
3.51663e-14
-1.66811e-14
4.19664e-14
-1.45717e-14
4.13281e-14
-1.16296e-14
-5.66769e-14
1.02141e-14
-3.28348e-14
3.34177e-14
-1.8624e-14
3.88856e-14
-1.91236e-14
3.3723e-14
-2.31759e-14
3.73312e-14
-8.54872e-15
5.42066e-14
-2.05391e-15
5.27356e-14
-1.24623e-14
2.80331e-14
-3.72202e-14
1.67366e-14
-3.9968e-14
1.90958e-14
-3.08087e-14
3.74978e-14
-1.11022e-15
8.37108e-14
7.50511e-14
-4.79616e-14
-8.29892e-15
-6.17006e-14
3.11973e-14
8.99281e-15
-1.16573e-15
-5.25691e-14
-7.96863e-14
-1.02501e-13
1.03528e-14
8.21565e-15
9.82825e-14
6.02296e-14
2.90601e-14
2.81164e-14
3.30291e-14
-4.34375e-14
2.32869e-14
9.71445e-15
2.52576e-15
4.13281e-14
7.81597e-14
-9.4369e-15
2.56739e-14
-3.80251e-14
1.48215e-14
5.02098e-14
-2.47302e-14
2.47302e-14
-3.32789e-14
2.43416e-14
-2.72837e-14
3.43614e-14
-2.14828e-14
3.48055e-14
-2.78666e-14
1.11022e-14
-8.79019e-14
-6.25611e-14
-3.27238e-14
-3.32512e-14
-2.8616e-14
-3.89966e-14
-7.1082e-14
2.28151e-14
2.04003e-14
1.54765e-13
1.3628e-13
2.25375e-14
5.65936e-14
-7.52176e-15
4.50751e-14
-1.61537e-14
3.2363e-14
-3.88578e-14
9.07607e-15
-5.07927e-14
5.46785e-15
-4.72122e-14
1.46827e-14
-4.01901e-14
1.68199e-14
-4.08285e-14
1.32117e-14
-4.33542e-14
1.87905e-14
-2.45359e-14
3.39728e-14
-2.82552e-14
1.28508e-14
-5.17086e-14
2.91434e-15
-5.38736e-14
5.41234e-15
-4.21885e-14
3.97182e-14
1.8735e-14
-6.94167e-14
-4.71845e-15
3.66374e-15
3.70537e-14
7.65776e-14
1.1105e-13
1.11855e-14
3.04201e-14
-4.87665e-14
-4.52416e-15
-4.86555e-14
9.856e-14
9.76219e-13
6.58196e-12
3.61292e-11
1.55099e-10
5.69899e-10
1.98438e-09
6.66355e-09
2.16801e-08
6.83656e-08
2.08803e-07
6.16957e-07
1.76106e-06
4.84874e-06
1.28552e-05
3.27565e-05
8.00505e-05
0.000187173
0.00041762
0.000886575
0.00178529
0.00339955
0.0061043
0.0103142
0.0163829
0.0244762
0.0344739
0.0459607
0.0583515
0.0706485
0.082425
0.0932479
0.102736
0.111168
0.11804
0.123986
0.128383
0.131756
0.133721
0.134697
0.134734
0.134385
0.133555
0.132812
0.130926
0.128854
0.125581
0.121017
0.116414
0.110362
0.104204
0.0980803
0.0923717
0.0869884
0.082363
0.0785733
0.0754451
0.0715593
0.0700575
0.0380794
0.0316775
0.0290701
0.0264556
0.0241838
0.022073
0.0199027
0.0173499
0.014446
0.011303
0.00776677
0.00482876
0.00272218
0.00133395
0.000473784
-3.54627e-05
-0.000327875
-0.000493463
-0.000588209
-0.00064522
-0.000683246
-0.000712364
-0.000737709
-0.000761845
-0.000785917
-0.000810229
-0.000835482
-0.00086229
-0.000890673
-0.000920406
-0.000949649
-0.00097778
-0.00100537
-0.00103282
-0.00106062
-0.00108895
-0.00111819
-0.00114927
-0.0011829
-0.00121938
-0.00125914
-0.00130225
-0.00134787
-0.00139495
-0.00144286
-0.00149173
-0.00154384
-0.00158885
-0.0016187
-0.00163299
-0.00163646
-0.00163645
-0.00162859
-0.00160719
-0.00156518
-0.00149451
-0.00138762
-0.0012376
-0.00104054
-0.000796812
-0.000538975
-0.000351594
-0.000222466
-0.000136695
-8.16661e-05
-4.7495e-05
-2.6917e-05
-1.48785e-05
-8.02878e-06
-4.23376e-06
-2.1828e-06
-1.10085e-06
-5.43634e-07
-2.62983e-07
-1.24302e-07
-5.70971e-08
-2.53446e-08
-9.92399e-09
-3.02924e-09
1.75362e-10
1.72126e-09
2.73867e-09
3.21145e-09
3.5045e-09
3.9766e-09
4.31838e-09
4.18534e-09
3.86254e-09
4.07705e-09
4.66557e-09
4.47106e-09
4.41838e-09
4.88345e-09
4.5811e-09
4.26316e-09
3.93388e-09
3.54646e-09
3.13889e-09
2.89992e-09
3.43927e-09
3.28785e-09
3.14685e-09
3.05393e-09
2.98687e-09
2.99438e-09
2.76883e-09
3.4176e-09
3.22028e-09
3.9314e-09
3.79131e-09
4.17847e-09
4.0331e-09
3.78715e-09
3.41683e-09
2.91905e-09
2.47678e-09
2.17119e-09
1.91515e-09
2.19066e-09
1.92773e-09
1.4051e-09
2.27223e-09
2.8178e-09
2.4219e-09
2.14727e-09
2.35936e-09
2.3708e-09
2.00733e-09
1.86823e-09
1.85359e-09
1.85595e-09
1.85453e-09
1.59287e-09
2.04555e-09
2.46503e-09
2.38914e-09
2.17793e-09
2.00777e-09
1.85982e-09
1.69497e-09
1.51996e-09
1.33072e-09
1.15296e-09
9.53008e-10
7.62881e-10
5.32594e-10
3.10294e-10
1.68868e-10
1.5703e-10
1.00256e-09
9.5207e-10
7.8478e-10
4.52545e-10
1.55055e-10
-8.25224e-11
-2.87031e-10
-5.54238e-10
-8.46399e-10
-1.16684e-09
-1.51977e-09
-1.83456e-09
-2.06656e-09
-2.06447e-09
-1.39076e-09
-1.40712e-09
-1.30196e-09
-1.01889e-09
-7.11623e-10
-5.43565e-11
1.05018e-10
1.03256e-10
5.11861e-10
1.6253e-10
1.71383e-11
-1.37021e-10
-5.36033e-11
7.17137e-10
5.82091e-10
3.77042e-10
2.89617e-11
-4.55998e-10
-1.06627e-09
-1.55643e-09
-6.64798e-10
-9.55964e-11
-3.5655e-10
-7.06407e-10
-1.06364e-09
-8.92754e-10
-1.18574e-09
-1.44962e-09
-1.62372e-09
-1.79854e-09
-1.89212e-09
-1.90997e-09
-1.84733e-09
-1.78078e-09
-1.50861e-09
-1.4083e-09
-1.11817e-09
-1.36006e-09
-1.05871e-10
-2.37279e-10
-1.96579e-10
3.87416e-10
4.26851e-10
2.97604e-10
4.12825e-11
2.4167e-10
4.51763e-11
9.62217e-11
1.4623e-10
1.60298e-10
-4.14389e-11
4.02451e-10
1.31834e-10
7.89427e-10
6.66887e-10
1.31023e-09
1.30163e-09
1.3124e-09
1.15234e-09
8.83404e-10
5.39771e-10
2.53706e-10
5.40012e-11
8.50363e-10
1.34396e-09
1.20254e-09
1.20595e-09
1.13931e-09
1.04762e-09
8.91902e-10
7.34431e-10
6.34984e-10
5.79846e-10
5.62551e-10
5.45199e-10
6.46651e-10
8.35755e-10
9.32161e-10
9.02432e-10
1.71296e-09
1.55663e-09
1.19566e-09
2.31361e-09
1.79031e-09
1.9924e-09
1.84234e-09
1.70151e-09
1.87057e-09
1.86314e-09
1.82828e-09
1.81663e-09
2.70208e-09
3.15995e-09
3.55625e-09
3.00821e-09
2.97764e-09
2.70347e-09
2.71598e-09
2.60431e-09
2.39724e-09
2.23412e-09
2.10537e-09
1.81235e-09
1.71381e-09
1.40069e-09
1.10983e-09
8.64063e-10
8.05557e-10
6.47503e-10
1.26799e-09
1.14422e-09
9.57911e-10
7.32555e-10
4.65306e-10
2.01453e-10
1.46471e-10
1.91918e-10
6.59085e-10
1.13224e-09
1.14355e-09
1.18058e-09
1.06107e-09
9.59744e-10
9.2534e-10
9.6837e-10
1.12003e-09
1.16448e-09
1.11223e-09
9.96081e-10
1.62504e-09
1.62319e-09
1.49812e-09
1.89834e-09
1.90863e-09
1.8251e-09
1.53146e-09
1.10273e-09
6.50104e-10
2.53962e-10
-6.11493e-11
-3.25983e-10
-5.67482e-10
-7.39277e-10
4.11276e-10
2.2618e-10
-8.78089e-11
1.70445e-10
-1.35586e-10
-3.93229e-10
-6.18172e-10
-8.20336e-10
-1.0354e-09
-1.21474e-09
-8.10303e-11
-3.38673e-10
-6.89255e-10
-9.88166e-10
-1.09272e-09
-1.37616e-09
-1.54441e-09
-1.6811e-09
-1.81248e-09
-1.90782e-09
-2.0473e-09
-2.23311e-09
-2.45156e-09
-1.86026e-09
-2.10454e-09
-2.2691e-09
-2.40139e-09
-2.5769e-09
-2.7262e-09
-2.88181e-09
-3.051e-09
-3.16759e-09
-3.15021e-09
-3.24412e-09
-3.44424e-09
-3.43567e-09
-2.92683e-09
-2.83647e-09
-2.79474e-09
-2.64268e-09
-2.4194e-09
-1.84903e-09
-1.73746e-09
-1.63574e-09
-1.6764e-09
-1.0436e-09
-1.25627e-09
-1.5675e-09
-1.68092e-09
-8.32173e-10
-1.08467e-09
-1.27025e-09
-1.3669e-09
-1.41981e-09
-5.04571e-10
-6.21654e-10
-9.15975e-10
-1.27768e-09
-1.45315e-09
-1.44756e-09
-1.8854e-09
-2.10129e-09
-1.62466e-09
-1.49083e-09
-1.59477e-09
-1.66452e-09
-8.73968e-10
-7.81853e-10
-3.7474e-10
4.90417e-11
5.24707e-10
5.75014e-10
3.30203e-10
2.34238e-10
3.10891e-10
1.24864e-09
1.15577e-09
8.98055e-10
7.65368e-10
1.29808e-09
1.25011e-09
1.24848e-09
1.24511e-09
1.1606e-09
1.45437e-09
1.56642e-09
1.75994e-09
1.80087e-09
1.74732e-09
1.64545e-09
1.44175e-09
1.17933e-09
8.36323e-10
4.52189e-10
)
;

boundaryField
{
    sides
    {
        type            calculated;
        value           uniform 0;
    }
    empty1
    {
        type            empty;
        value           nonuniform List<scalar> 0();
    }
    empty2
    {
        type            empty;
        value           nonuniform List<scalar> 0();
    }
}


// ************************************************************************* //
