/*--------------------------------*- C++ -*----------------------------------*\
| =========                 |                                                 |
| \\      /  F ield         | OpenFOAM: The Open Source CFD Toolbox           |
|  \\    /   O peration     | Version:  2312                                  |
|   \\  /    A nd           | Website:  www.openfoam.com                      |
|    \\/     M anipulation  |                                                 |
\*---------------------------------------------------------------------------*/
FoamFile
{
    version     2.0;
    format      ascii;
    arch        "LSB;label=32;scalar=64";
    class       volVectorField;
    location    "5e-05";
    object      U;
}
// * * * * * * * * * * * * * * * * * * * * * * * * * * * * * * * * * * * * * //

dimensions      [0 1 -1 0 0 0 0];

internalField   nonuniform List<vector> 
800
(
(-1.64662e-11 0 0)
(-1.35031e-11 0 0)
(-1.77609e-11 0 0)
(2.10213e-12 0 0)
(1.47756e-11 0 0)
(1.47578e-11 0 0)
(1.03872e-11 0 0)
(7.73886e-12 0 0)
(1.23694e-11 0 0)
(2.1937e-11 0 0)
(2.7458e-11 0 0)
(2.33243e-11 0 0)
(1.89167e-12 0 0)
(-2.74569e-11 0 0)
(-3.30237e-11 0 0)
(-4.30566e-11 0 0)
(-4.94665e-11 0 0)
(-2.39809e-11 0 0)
(2.90926e-12 0 0)
(2.52178e-11 0 0)
(3.91907e-11 0 0)
(1.74129e-11 0 0)
(3.60234e-11 0 0)
(2.51765e-11 0 0)
(-6.21545e-12 0 0)
(-7.49331e-12 0 0)
(-8.36143e-12 0 0)
(2.15821e-11 0 0)
(3.55731e-11 0 0)
(2.74453e-11 0 0)
(1.16543e-12 0 0)
(-3.41957e-11 0 0)
(-1.75856e-11 0 0)
(9.4071e-12 0 0)
(2.70053e-11 0 0)
(-1.41806e-12 0 0)
(-3.26347e-11 0 0)
(-2.79374e-11 0 0)
(-1.79529e-11 0 0)
(-1.58033e-11 0 0)
(-2.88322e-11 0 0)
(-1.50999e-11 0 0)
(-1.00247e-11 0 0)
(-8.88156e-12 0 0)
(-7.09256e-12 0 0)
(-3.08501e-12 0 0)
(2.34733e-12 0 0)
(1.29768e-11 0 0)
(3.46681e-11 0 0)
(4.78524e-11 0 0)
(4.09328e-11 0 0)
(2.75848e-11 0 0)
(7.95324e-12 0 0)
(-1.62919e-11 0 0)
(2.18961e-13 0 0)
(8.99303e-12 0 0)
(-4.03133e-11 0 0)
(-7.58702e-11 0 0)
(-7.41187e-11 0 0)
(-5.10783e-11 0 0)
(-1.93384e-11 0 0)
(7.12917e-12 0 0)
(2.83601e-11 0 0)
(4.49302e-11 0 0)
(5.3277e-11 0 0)
(5.24822e-11 0 0)
(3.42093e-11 0 0)
(7.34828e-12 0 0)
(9.35703e-12 0 0)
(-1.08036e-11 0 0)
(-2.81295e-11 0 0)
(-3.43314e-11 0 0)
(-4.50166e-12 0 0)
(1.40712e-11 0 0)
(1.50738e-11 0 0)
(4.29334e-12 0 0)
(-6.93886e-12 0 0)
(-1.01655e-11 0 0)
(-4.23358e-11 0 0)
(-6.43261e-11 0 0)
(-3.72373e-11 0 0)
(-9.59866e-12 0 0)
(5.58003e-12 0 0)
(1.43972e-11 0 0)
(1.78506e-11 0 0)
(1.64515e-11 0 0)
(6.27738e-12 0 0)
(-1.4245e-11 0 0)
(-2.86167e-11 0 0)
(-2.75001e-11 0 0)
(-1.62093e-11 0 0)
(4.52864e-12 0 0)
(2.89683e-11 0 0)
(6.98684e-11 0 0)
(4.11455e-11 0 0)
(6.77716e-12 0 0)
(-8.8543e-12 0 0)
(-1.28737e-11 0 0)
(-1.20205e-11 0 0)
(-8.25469e-12 0 0)
(-4.01271e-12 0 0)
(-8.96637e-13 0 0)
(3.39124e-12 0 0)
(1.36636e-11 0 0)
(2.66146e-11 0 0)
(8.30356e-12 0 0)
(2.07022e-11 0 0)
(3.99934e-11 0 0)
(1.16859e-12 0 0)
(-2.07074e-11 0 0)
(-2.5528e-11 0 0)
(-2.44106e-11 0 0)
(-2.22616e-11 0 0)
(-2.14597e-11 0 0)
(-2.09075e-11 0 0)
(-1.78751e-11 0 0)
(-1.26256e-11 0 0)
(-9.662e-12 0 0)
(-8.87417e-12 0 0)
(-5.07024e-12 0 0)
(7.62384e-12 0 0)
(3.61439e-11 0 0)
(7.33529e-11 0 0)
(1.04152e-11 0 0)
(-1.46645e-11 0 0)
(-1.87076e-12 0 0)
(-1.92041e-11 0 0)
(-2.37126e-12 0 0)
(9.6067e-12 0 0)
(1.16152e-11 0 0)
(7.0606e-12 0 0)
(-9.73963e-12 0 0)
(-5.19511e-11 0 0)
(-1.13879e-10 0 0)
(-4.91453e-11 0 0)
(-3.51702e-12 0 0)
(1.41086e-11 0 0)
(1.8347e-11 0 0)
(1.69531e-11 0 0)
(1.50615e-11 0 0)
(1.57424e-11 0 0)
(2.01967e-11 0 0)
(2.46064e-11 0 0)
(2.49208e-11 0 0)
(2.00677e-11 0 0)
(8.42618e-12 0 0)
(-3.61514e-12 0 0)
(-1.32728e-11 0 0)
(-2.31641e-11 0 0)
(8.00848e-12 0 0)
(2.86195e-12 0 0)
(-1.16244e-12 0 0)
(1.50776e-12 0 0)
(8.92085e-12 0 0)
(1.5893e-11 0 0)
(2.13187e-11 0 0)
(5.50037e-11 0 0)
(1.13735e-11 0 0)
(-1.50233e-11 0 0)
(-2.33908e-11 0 0)
(-2.4085e-11 0 0)
(-1.91748e-11 0 0)
(-5.03974e-12 0 0)
(1.12598e-11 0 0)
(1.70654e-11 0 0)
(4.64335e-12 0 0)
(-3.98645e-11 0 0)
(-1.41866e-12 0 0)
(1.55926e-11 0 0)
(1.55092e-11 0 0)
(2.24291e-12 0 0)
(-1.17885e-11 0 0)
(-1.23927e-11 0 0)
(3.84669e-13 0 0)
(1.49353e-11 0 0)
(1.72662e-11 0 0)
(-6.7177e-13 0 0)
(-5.14752e-11 0 0)
(-1.13259e-11 0 0)
(1.20512e-11 0 0)
(1.95376e-11 0 0)
(2.04981e-11 0 0)
(1.65171e-11 0 0)
(2.09136e-12 0 0)
(-1.90328e-11 0 0)
(-3.02526e-11 0 0)
(-2.64233e-11 0 0)
(-1.11967e-11 0 0)
(7.20312e-12 0 0)
(2.00727e-11 0 0)
(-9.24231e-12 0 0)
(2.49897e-12 0 0)
(2.68404e-11 0 0)
(5.4114e-11 0 0)
(6.6456e-11 0 0)
(5.55191e-11 0 0)
(2.34515e-11 0 0)
(-6.58793e-12 0 0)
(-2.03958e-11 0 0)
(-2.67739e-11 0 0)
(-2.99846e-11 0 0)
(-3.12019e-11 0 0)
(-3.11219e-11 0 0)
(-2.94017e-11 0 0)
(-2.47443e-11 0 0)
(-1.62726e-11 0 0)
(-7.77968e-12 0 0)
(-3.76051e-12 0 0)
(-3.28826e-12 0 0)
(-5.89862e-12 0 0)
(-8.3716e-12 0 0)
(-7.25968e-12 0 0)
(-1.84073e-12 0 0)
(4.15202e-12 0 0)
(6.13181e-12 0 0)
(4.632e-12 0 0)
(-1.41305e-12 0 0)
(-8.11363e-12 0 0)
(-1.04451e-11 0 0)
(-9.32553e-12 0 0)
(-4.76324e-12 0 0)
(2.21558e-12 0 0)
(7.86931e-12 0 0)
(1.07228e-11 0 0)
(1.16554e-11 0 0)
(1.13056e-11 0 0)
(9.24121e-12 0 0)
(-2.6266e-11 0 0)
(-1.96618e-11 0 0)
(-9.80553e-12 0 0)
(2.1407e-14 0 0)
(6.25818e-12 0 0)
(8.62673e-12 0 0)
(8.37917e-12 0 0)
(5.866e-12 0 0)
(3.81865e-12 0 0)
(5.38027e-12 0 0)
(1.18501e-11 0 0)
(1.92265e-11 0 0)
(2.20673e-11 0 0)
(2.14526e-11 0 0)
(1.69279e-11 0 0)
(6.26507e-12 0 0)
(-4.3946e-12 0 0)
(-9.19173e-12 0 0)
(-1.03352e-11 0 0)
(-9.19946e-12 0 0)
(-5.19367e-12 0 0)
(2.44606e-12 0 0)
(1.45981e-11 0 0)
(3.53876e-11 0 0)
(7.5878e-11 0 0)
(1.26488e-11 0 0)
(-2.31683e-11 0 0)
(-2.8535e-11 0 0)
(-1.15529e-11 0 0)
(1.52826e-11 0 0)
(4.30099e-12 0 0)
(-2.0907e-11 0 0)
(-5.33373e-11 0 0)
(-7.23355e-11 0 0)
(-3.85209e-11 0 0)
(7.01895e-12 0 0)
(4.33241e-11 0 0)
(6.23455e-11 0 0)
(3.53344e-11 0 0)
(2.2833e-11 0 0)
(2.29429e-11 0 0)
(-3.41263e-12 0 0)
(-7.23864e-12 0 0)
(1.10486e-11 0 0)
(5.72215e-12 0 0)
(1.81341e-11 0 0)
(4.69739e-11 0 0)
(2.90529e-11 0 0)
(6.98412e-12 0 0)
(-5.2986e-12 0 0)
(-7.89865e-12 0 0)
(2.63888e-11 0 0)
(1.04954e-11 0 0)
(-5.44254e-13 0 0)
(-4.20582e-12 0 0)
(-4.24598e-12 0 0)
(-1.55933e-12 0 0)
(2.86169e-12 0 0)
(5.51073e-12 0 0)
(5.77532e-12 0 0)
(3.27254e-12 0 0)
(-6.19488e-12 0 0)
(-3.09312e-11 0 0)
(-5.90154e-11 0 0)
(-3.85669e-11 0 0)
(-2.60201e-11 0 0)
(-2.41971e-11 0 0)
(-2.69281e-11 0 0)
(-4.33411e-11 0 0)
(-2.12946e-11 0 0)
(1.59462e-11 0 0)
(7.13473e-11 0 0)
(1.28161e-10 0 0)
(6.62415e-11 0 0)
(3.15876e-11 0 0)
(2.00396e-11 0 0)
(1.59237e-11 0 0)
(1.26316e-11 0 0)
(7.33895e-12 0 0)
(-2.4196e-12 0 0)
(-1.24877e-11 0 0)
(-1.75469e-11 0 0)
(-1.88204e-11 0 0)
(-1.67404e-11 0 0)
(-1.24558e-11 0 0)
(-9.5044e-12 0 0)
(-8.64823e-12 0 0)
(-8.95213e-12 0 0)
(-1.07208e-11 0 0)
(-1.22172e-11 0 0)
(-1.01276e-11 0 0)
(-1.2593e-12 0 0)
(6.15206e-12 0 0)
(4.15532e-12 0 0)
(-5.56402e-12 0 0)
(-1.56559e-11 0 0)
(-1.96267e-11 0 0)
(-2.04844e-11 0 0)
(-1.95664e-11 0 0)
(-1.51611e-11 0 0)
(-7.72793e-13 0 0)
(3.01135e-11 0 0)
(-1.87746e-11 0 0)
(-2.84228e-11 0 0)
(-9.9473e-13 0 0)
(1.76443e-11 0 0)
(4.59968e-11 0 0)
(7.20086e-11 0 0)
(4.63934e-11 0 0)
(1.2624e-11 0 0)
(-1.2884e-11 0 0)
(-2.93099e-11 0 0)
(-3.58457e-11 0 0)
(-2.43433e-11 0 0)
(1.7999e-10 0 0)
(1.38651e-09 0 0)
(1.01639e-08 0 0)
(5.49061e-08 0 0)
(2.16887e-07 0 0)
(7.79678e-07 0 0)
(2.68007e-06 0 0)
(8.91043e-06 0 0)
(2.87114e-05 0 0)
(8.96491e-05 0 0)
(0.000271019 0 0)
(0.000792199 0 0)
(0.00223571 0 0)
(0.00608204 0 0)
(0.0159207 0 0)
(0.0400222 0 0)
(0.096407 0 0)
(0.221991 0 0)
(0.487354 0 0)
(1.01731 0 0)
(2.01378 0 0)
(3.77142 0 0)
(6.67141 0 0)
(11.14 0 0)
(17.5717 0 0)
(26.2396 0 0)
(37.2274 0 0)
(50.4115 0 0)
(65.4724 0 0)
(81.7886 0 0)
(99.1519 0 0)
(116.941 0 0)
(135.46 0 0)
(154.062 0 0)
(173.12 0 0)
(192.306 0 0)
(211.34 0 0)
(229.701 0 0)
(245.964 0 0)
(259.739 0 0)
(267.99 0 0)
(275.452 0 0)
(275.509 0 0)
(283.883 0 0)
(279.313 0 0)
(291.4 0 0)
(287.166 0 0)
(297.936 0 0)
(304.218 0 0)
(315.489 0 0)
(327.146 0 0)
(337.904 0 0)
(343.858 0 0)
(341.261 0 0)
(333.723 0 0)
(319.533 0 0)
(285.329 0 0)
(255.056 0 0)
(0.622253 0 0)
(0.236601 0 0)
(0.296 0 0)
(0.275382 0 0)
(0.25161 0 0)
(0.231452 0 0)
(0.209026 0 0)
(0.186354 0 0)
(0.15771 0 0)
(0.128289 0 0)
(0.0944453 0 0)
(0.0608216 0 0)
(0.0357013 0 0)
(0.0186927 0 0)
(0.00794687 0 0)
(0.00150002 0 0)
(-0.00222943 0 0)
(-0.00434224 0 0)
(-0.00553788 0 0)
(-0.00623575 0 0)
(-0.00667718 0 0)
(-0.00699512 0 0)
(-0.00725884 0 0)
(-0.00750259 0 0)
(-0.00774226 0 0)
(-0.00798615 0 0)
(-0.00823377 0 0)
(-0.00849675 0 0)
(-0.00877326 0 0)
(-0.00906345 0 0)
(-0.00935899 0 0)
(-0.0096433 0 0)
(-0.00992109 0 0)
(-0.0101965 0 0)
(-0.0104718 0 0)
(-0.0107557 0 0)
(-0.0110434 0 0)
(-0.0113464 0 0)
(-0.0116719 0 0)
(-0.0120256 0 0)
(-0.0124061 0 0)
(-0.0128214 0 0)
(-0.0132647 0 0)
(-0.0137262 0 0)
(-0.0141985 0 0)
(-0.0146839 0 0)
(-0.0151924 0 0)
(-0.0157063 0 0)
(-0.0160887 0 0)
(-0.0163028 0 0)
(-0.0163743 0 0)
(-0.0163706 0 0)
(-0.0163234 0 0)
(-0.0161564 0 0)
(-0.0158276 0 0)
(-0.0152409 0 0)
(-0.0143355 0 0)
(-0.013031 0 0)
(-0.0112826 0 0)
(-0.00907295 0 0)
(-0.00649101 0 0)
(-0.00428606 0 0)
(-0.00274326 0 0)
(-0.00170389 0 0)
(-0.00102833 0 0)
(-0.000603786 0 0)
(-0.000345297 0 0)
(-0.000192515 0 0)
(-0.000104732 0 0)
(-5.56536e-05 0 0)
(-2.89102e-05 0 0)
(-1.4684e-05 0 0)
(-7.29992e-06 0 0)
(-3.55436e-06 0 0)
(-1.69583e-06 0 0)
(-7.85435e-07 0 0)
(-3.55253e-07 0 0)
(-1.48635e-07 0 0)
(-5.23903e-08 0 0)
(-8.16867e-09 0 0)
(1.22063e-08 0 0)
(2.39554e-08 0 0)
(3.02701e-08 0 0)
(3.39612e-08 0 0)
(3.76015e-08 0 0)
(4.15256e-08 0 0)
(4.29081e-08 0 0)
(4.04296e-08 0 0)
(3.89242e-08 0 0)
(4.33253e-08 0 0)
(4.61078e-08 0 0)
(4.33759e-08 0 0)
(4.53094e-08 0 0)
(4.67141e-08 0 0)
(4.35923e-08 0 0)
(4.08597e-08 0 0)
(3.72974e-08 0 0)
(3.36001e-08 0 0)
(2.93453e-08 0 0)
(3.13367e-08 0 0)
(3.38124e-08 0 0)
(3.15596e-08 0 0)
(3.07188e-08 0 0)
(2.99162e-08 0 0)
(2.98536e-08 0 0)
(2.8517e-08 0 0)
(3.04591e-08 0 0)
(3.23418e-08 0 0)
(3.48184e-08 0 0)
(3.76281e-08 0 0)
(3.96139e-08 0 0)
(4.14121e-08 0 0)
(3.8938e-08 0 0)
(3.60451e-08 0 0)
(3.15044e-08 0 0)
(2.68441e-08 0 0)
(2.30262e-08 0 0)
(1.98152e-08 0 0)
(1.99672e-08 0 0)
(2.0868e-08 0 0)
(1.72254e-08 0 0)
(1.8637e-08 0 0)
(2.52805e-08 0 0)
(2.59243e-08 0 0)
(2.30683e-08 0 0)
(2.30272e-08 0 0)
(2.42506e-08 0 0)
(2.21275e-08 0 0)
(1.92341e-08 0 0)
(1.88927e-08 0 0)
(1.83073e-08 0 0)
(1.84183e-08 0 0)
(1.67243e-08 0 0)
(1.70798e-08 0 0)
(2.2355e-08 0 0)
(2.42876e-08 0 0)
(2.25083e-08 0 0)
(2.08643e-08 0 0)
(1.93119e-08 0 0)
(1.77154e-08 0 0)
(1.5988e-08 0 0)
(1.41912e-08 0 0)
(1.23555e-08 0 0)
(1.05334e-08 0 0)
(8.69538e-09 0 0)
(6.60195e-09 0 0)
(4.34235e-09 0 0)
(2.54886e-09 0 0)
(1.29703e-09 0 0)
(6.23089e-09 0 0)
(1.07697e-08 0 0)
(9.01175e-09 0 0)
(6.20094e-09 0 0)
(2.98186e-09 0 0)
(1.3852e-10 0 0)
(-2.11021e-09 0 0)
(-4.28838e-09 0 0)
(-7.13582e-09 0 0)
(-1.02141e-08 0 0)
(-1.36305e-08 0 0)
(-1.67859e-08 0 0)
(-1.92215e-08 0 0)
(-2.05426e-08 0 0)
(-1.6584e-08 0 0)
(-1.37626e-08 0 0)
(-1.35594e-08 0 0)
(-1.22676e-08 0 0)
(-9.0096e-09 0 0)
(-3.28698e-09 0 0)
(7.54745e-10 0 0)
(1.90489e-09 0 0)
(3.01932e-09 0 0)
(2.4391e-09 0 0)
(4.79376e-10 0 0)
(-7.84499e-10 0 0)
(-1.48643e-09 0 0)
(2.9061e-09 0 0)
(6.36886e-09 0 0)
(4.57004e-09 0 0)
(2.01155e-09 0 0)
(-2.0288e-09 0 0)
(-7.24454e-09 0 0)
(-1.28895e-08 0 0)
(-1.15549e-08 0 0)
(-3.14714e-09 0 0)
(-2.07097e-09 0 0)
(-5.12057e-09 0 0)
(-8.56152e-09 0 0)
(-9.53327e-09 0 0)
(-1.00578e-08 0 0)
(-1.33534e-08 0 0)
(-1.53873e-08 0 0)
(-1.69204e-08 0 0)
(-1.84467e-08 0 0)
(-1.90918e-08 0 0)
(-1.85965e-08 0 0)
(-1.83881e-08 0 0)
(-1.68905e-08 0 0)
(-1.52776e-08 0 0)
(-1.30309e-08 0 0)
(-1.19274e-08 0 0)
(-7.46364e-09 0 0)
(-2.21322e-09 0 0)
(-2.93927e-09 0 0)
(8.96177e-10 0 0)
(4.67374e-09 0 0)
(3.931e-09 0 0)
(1.9138e-09 0 0)
(9.60432e-10 0 0)
(5.07238e-10 0 0)
(4.34898e-10 0 0)
(1.43466e-09 0 0)
(1.47411e-09 0 0)
(3.05531e-10 0 0)
(1.84045e-09 0 0)
(3.09878e-09 0 0)
(4.71135e-09 0 0)
(6.9256e-09 0 0)
(9.80657e-09 0 0)
(1.32416e-08 0 0)
(1.27001e-08 0 0)
(1.2067e-08 0 0)
(1.00837e-08 0 0)
(7.14487e-09 0 0)
(3.91884e-09 0 0)
(1.42014e-09 0 0)
(4.4404e-09 0 0)
(1.11542e-08 0 0)
(1.26102e-08 0 0)
(1.21392e-08 0 0)
(1.17425e-08 0 0)
(1.07679e-08 0 0)
(9.55458e-09 0 0)
(8.45665e-09 0 0)
(6.96293e-09 0 0)
(6.22965e-09 0 0)
(5.92686e-09 0 0)
(5.35515e-09 0 0)
(5.60258e-09 0 0)
(7.2094e-09 0 0)
(8.77684e-09 0 0)
(1.00583e-08 0 0)
(1.42559e-08 0 0)
(1.7591e-08 0 0)
(1.48534e-08 0 0)
(1.75277e-08 0 0)
(1.85904e-08 0 0)
(1.73541e-08 0 0)
(1.87592e-08 0 0)
(1.68654e-08 0 0)
(1.75026e-08 0 0)
(1.90404e-08 0 0)
(1.88546e-08 0 0)
(1.78278e-08 0 0)
(2.31198e-08 0 0)
(2.98787e-08 0 0)
(3.26501e-08 0 0)
(3.15702e-08 0 0)
(2.91598e-08 0 0)
(2.80687e-08 0 0)
(2.722e-08 0 0)
(2.69743e-08 0 0)
(2.50695e-08 0 0)
(2.34423e-08 0 0)
(2.15665e-08 0 0)
(1.8991e-08 0 0)
(1.72776e-08 0 0)
(1.54474e-08 0 0)
(1.2336e-08 0 0)
(9.44305e-09 0 0)
(7.99011e-09 0 0)
(6.81349e-09 0 0)
(8.79134e-09 0 0)
(1.1892e-08 0 0)
(1.01285e-08 0 0)
(8.34521e-09 0 0)
(6.01367e-09 0 0)
(3.41704e-09 0 0)
(1.32705e-09 0 0)
(9.64323e-10 0 0)
(3.81484e-09 0 0)
(9.20863e-09 0 0)
(1.19701e-08 0 0)
(1.19091e-08 0 0)
(1.12608e-08 0 0)
(1.01165e-08 0 0)
(9.25613e-09 0 0)
(9.37738e-09 0 0)
(1.04139e-08 0 0)
(1.15192e-08 0 0)
(1.17682e-08 0 0)
(1.05854e-08 0 0)
(1.28533e-08 0 0)
(1.65605e-08 0 0)
(1.53827e-08 0 0)
(1.67644e-08 0 0)
(1.91726e-08 0 0)
(1.887e-08 0 0)
(1.6661e-08 0 0)
(1.29028e-08 0 0)
(8.48966e-09 0 0)
(4.72112e-09 0 0)
(1.13258e-09 0 0)
(-1.7308e-09 0 0)
(-3.80912e-09 0 0)
(-6.51114e-09 0 0)
(-1.95017e-09 0 0)
(3.58025e-09 0 0)
(-2.13244e-10 0 0)
(-1.5911e-10 0 0)
(8.11491e-11 0 0)
(-2.7718e-09 0 0)
(-5.00222e-09 0 0)
(-7.04305e-09 0 0)
(-8.84434e-09 0 0)
(-1.07654e-08 0 0)
(-5.47916e-09 0 0)
(-2.009e-09 0 0)
(-5.19099e-09 0 0)
(-8.34389e-09 0 0)
(-1.0704e-08 0 0)
(-1.27729e-08 0 0)
(-1.46958e-08 0 0)
(-1.60493e-08 0 0)
(-1.72647e-08 0 0)
(-1.84018e-08 0 0)
(-1.9826e-08 0 0)
(-2.11408e-08 0 0)
(-2.28381e-08 0 0)
(-2.11918e-08 0 0)
(-1.9708e-08 0 0)
(-2.17934e-08 0 0)
(-2.34666e-08 0 0)
(-2.50305e-08 0 0)
(-2.65814e-08 0 0)
(-2.80989e-08 0 0)
(-2.96324e-08 0 0)
(-3.15344e-08 0 0)
(-3.18156e-08 0 0)
(-3.20361e-08 0 0)
(-3.33708e-08 0 0)
(-3.48143e-08 0 0)
(-3.17203e-08 0 0)
(-2.84651e-08 0 0)
(-2.84339e-08 0 0)
(-2.73933e-08 0 0)
(-2.56296e-08 0 0)
(-2.16695e-08 0 0)
(-1.78903e-08 0 0)
(-1.7084e-08 0 0)
(-1.6853e-08 0 0)
(-1.37936e-08 0 0)
(-1.159e-08 0 0)
(-1.36932e-08 0 0)
(-1.61306e-08 0 0)
(-1.22994e-08 0 0)
(-1.01845e-08 0 0)
(-1.21225e-08 0 0)
(-1.31918e-08 0 0)
(-1.3932e-08 0 0)
(-9.92583e-09 0 0)
(-5.67528e-09 0 0)
(-7.84111e-09 0 0)
(-1.09507e-08 0 0)
(-1.384e-08 0 0)
(-1.41441e-08 0 0)
(-1.56755e-08 0 0)
(-2.03303e-08 0 0)
(-1.81466e-08 0 0)
(-1.47928e-08 0 0)
(-1.52867e-08 0 0)
(-1.63032e-08 0 0)
(-1.16889e-08 0 0)
(-7.23239e-09 0 0)
(-5.62712e-09 0 0)
(-1.89163e-09 0 0)
(2.96138e-09 0 0)
(5.85615e-09 0 0)
(4.52968e-09 0 0)
(2.51749e-09 0 0)
(2.14516e-09 0 0)
(7.71352e-09 0 0)
(1.24268e-08 0 0)
(1.0458e-08 0 0)
(8.22367e-09 0 0)
(1.044e-08 0 0)
(1.30785e-08 0 0)
(1.24828e-08 0 0)
(1.2514e-08 0 0)
(1.26043e-08 0 0)
(1.36576e-08 0 0)
(1.54336e-08 0 0)
(1.69051e-08 0 0)
(1.8072e-08 0 0)
(1.78542e-08 0 0)
(1.70285e-08 0 0)
(1.55913e-08 0 0)
(1.31579e-08 0 0)
(1.01564e-08 0 0)
(6.54413e-09 0 0)
(2.68386e-09 0 0)
)
;

boundaryField
{
    sides
    {
        type            fixedValue;
        value           uniform (0 0 0);
    }
    empty1
    {
        type            empty;
    }
    empty2
    {
        type            empty;
    }
}


// ************************************************************************* //
