/*--------------------------------*- C++ -*----------------------------------*\
| =========                 |                                                 |
| \\      /  F ield         | OpenFOAM: The Open Source CFD Toolbox           |
|  \\    /   O peration     | Version:  2312                                  |
|   \\  /    A nd           | Website:  www.openfoam.com                      |
|    \\/     M anipulation  |                                                 |
\*---------------------------------------------------------------------------*/
FoamFile
{
    version     2.0;
    format      ascii;
    arch        "LSB;label=32;scalar=64";
    class       surfaceScalarField;
    location    "5e-05";
    object      deltaRho_own;
}
// * * * * * * * * * * * * * * * * * * * * * * * * * * * * * * * * * * * * * //

dimensions      [1 0 -1 0 0 0 0];

oriented        oriented;

internalField   nonuniform List<scalar> 
799
(
-0
-0
-0
-0
-6.10014e-17
-0
-0
-0
3.05007e-17
3.05007e-17
-0
-0
-0
-0
-0
-3.05007e-17
-0
-0
-3.05007e-17
-0
3.05007e-17
-0
-0
-0
-0
-0
3.05007e-17
-3.05007e-17
-3.05007e-17
-0
-0
-0
-0
-0
-0
-0
-0
-0
-0
-0
-0
-0
-0
-0
-0
-0
-3.05007e-17
-0
-0
-0
-0
-3.05007e-17
-0
-6.10014e-17
-0
-0
-3.05007e-17
-0
-0
-3.05007e-17
-3.05007e-17
-0
-3.05007e-17
-3.05007e-17
-3.05007e-17
-3.05007e-17
-0
-0
-3.05007e-17
-0
-0
-0
-0
-3.05007e-17
-0
-0
-3.05007e-17
-6.10014e-17
-0
-0
-3.05007e-17
-3.05007e-17
-3.05007e-17
-0
-0
-3.05007e-17
-3.05007e-17
-3.05007e-17
-3.05007e-17
-0
-0
-0
3.05007e-17
-3.05007e-17
-3.05007e-17
-0
-0
-3.05007e-17
-0
-0
-3.05007e-17
-0
-3.05007e-17
-0
-6.10014e-17
-3.05007e-17
-0
-0
-0
-0
-0
-0
-3.05007e-17
-3.05007e-17
-3.05007e-17
-0
-0
-3.05007e-17
-3.05007e-17
3.05007e-17
-0
-0
-0
-3.05007e-17
-0
-3.05007e-17
-3.05007e-17
-0
-0
-0
-0
-0
-0
-0
-0
3.05007e-17
-0
-3.05007e-17
-0
-0
-0
-0
-0
-6.10014e-17
-6.10014e-17
-0
-0
3.05007e-17
-0
-0
-3.05007e-17
-0
-0
-0
-0
-3.05007e-17
-3.05007e-17
-0
-0
-0
-0
-0
-0
-9.1502e-17
3.05007e-17
-3.05007e-17
-0
-0
-0
-0
-3.05007e-17
-0
-0
-0
-0
-0
-0
-0
-0
-3.05007e-17
3.05007e-17
-0
-0
-0
-0
-0
-0
3.05007e-17
-0
-3.05007e-17
6.10014e-17
-0
-0
-0
-0
-3.05007e-17
-0
-0
-0
-0
-0
-0
-0
3.05007e-17
-0
-0
-3.05007e-17
3.05007e-17
-3.05007e-17
-0
-0
3.05007e-17
-0
3.05007e-17
-3.05007e-17
-0
-6.10014e-17
-0
-0
3.05007e-17
-0
-0
-3.05007e-17
3.05007e-17
-0
-0
-0
-0
-0
-3.05007e-17
3.05007e-17
-0
-3.05007e-17
-6.10014e-17
-0
-0
-0
-0
6.10014e-17
-0
-0
-3.05007e-17
-0
-0
-0
-3.05007e-17
-0
-3.05007e-17
3.05007e-17
-3.05007e-17
3.05007e-17
-0
-0
-3.05007e-17
-0
-3.05007e-17
-3.05007e-17
-0
-3.05007e-17
-0
-0
-0
-3.05007e-17
3.05007e-17
-0
-6.10014e-17
-3.05007e-17
-0
-3.05007e-17
-0
-0
-0
-0
-3.05007e-17
-0
-3.05007e-17
-0
-0
-3.05007e-17
-3.05007e-17
-0
-0
-0
-0
-0
-3.05007e-17
-0
-3.05007e-17
-3.05007e-17
-3.05007e-17
-0
-3.05007e-17
-0
-3.05007e-17
3.05007e-17
-0
-0
-3.05007e-17
-0
-3.05007e-17
-0
3.05007e-17
-3.05007e-17
-0
-3.05007e-17
-0
-3.05007e-17
-0
-6.10014e-17
-0
-0
-0
-0
-0
-3.05007e-17
-0
-3.05007e-17
-0
-3.05007e-17
-0
-0
-0
-0
-3.05007e-17
-0
-0
-0
-0
-3.05007e-17
-0
-0
-3.05007e-17
-3.05007e-17
-3.05007e-17
-0
-0
-0
-0
-3.05007e-17
-3.05007e-17
-0
-0
3.05007e-17
-6.10014e-17
-3.05007e-17
-3.05007e-17
1.22003e-16
-6.10014e-17
6.10014e-17
-3.05007e-17
-6.10014e-17
3.05007e-17
9.15021e-17
-6.10014e-17
-3.05007e-17
3.05007e-17
-6.10002e-17
9.14927e-17
-6.09881e-17
-9.14599e-17
1.20273e-11
1.38403e-11
1.79371e-11
2.04254e-11
1.99708e-11
1.59456e-11
8.88198e-12
-5.68553e-12
-1.14296e-11
-9.77424e-12
-1.92206e-11
-1.93292e-11
-1.4751e-11
-1.48136e-11
-5.92104e-12
-3.09306e-12
-0
2.38431e-12
3.73276e-12
2.36212e-12
1.161e-12
3.3416e-13
-2.88847e-13
-8.90835e-13
4.06686e-18
-2.32496e-12
-1.76697e-12
-1.52469e-12
-3.38937e-13
-5.0615e-13
-2.677e-13
8.92767e-12
6.8686e-12
2.00153e-11
1.72787e-11
-1.25823e-09
0.000232954
0.000551324
0.000890555
0.000732473
-0.000272462
-3.91794e-07
0.00391231
0.00411269
0.0115612
8.69049e-10
0.000699932
0.000933579
0.00130039
0.00190342
0.00299173
0.00522217
0.0108395
0.032149
-1.38672e-15
0.00177095
0.00231019
0.00311242
0.00437033
0.00648441
0.0103956
0.0187953
0.0423539
10.4837
-1.73247e-09
-6.31415e-11
1.00215e-08
-6.72238e-10
9.87705e-10
-1.24319e-09
1.34414e-09
-1.42313e-09
-7.07602e-09
9.36079e-10
8.04972e-09
-9.94002e-09
6.90114e-10
8.61274e-09
8.33443e-15
-1.06129e-08
7.51597e-10
9.20819e-09
8.33443e-15
-1.90292e-09
-5.49143e-09
3.40044e-12
9.59617e-09
-1.05009e-08
8.58544e-10
-7.79684e-10
-2.96038e-11
1.09153e-08
-1.73209e-09
1.7649e-09
-2.03053e-09
2.07164e-09
8.33443e-15
-2.25385e-09
-7.12657e-09
1.16635e-08
-1.01671e-08
7.31486e-10
8.76036e-09
-1.29909e-10
-1.0317e-08
4.1377e-10
6.52501e-10
7.97384e-09
-2.03438e-09
2.19509e-09
-7.79703e-10
9.34339e-10
-1.82724e-09
-5.49405e-09
-0
-2.36864e-11
9.89018e-09
-1.26372e-08
1.26372e-08
-1.69897e-09
1.71741e-09
8.33443e-15
-1.28661e-08
1.13834e-08
-0
-0
-1.10998e-08
1.61873e-09
7.80363e-09
-1.58178e-09
-8.21642e-09
1.1354e-08
-4.64311e-11
-1.67405e-09
1.64975e-09
-7.89354e-11
-2.16114e-09
-5.82369e-09
8.3052e-09
-8.33443e-15
-9.72178e-10
9.01935e-10
-1.91568e-09
2.00208e-09
-1.24286e-08
1.24903e-08
-1.45572e-08
1.45572e-08
-1.097e-08
1.097e-08
-3.91551e-11
-8.78032e-10
8.59421e-10
-2.54283e-11
-8.33443e-15
-2.57253e-09
-5.07023e-09
9.42919e-09
2.24196e-12
-1.09381e-08
-2.42531e-11
1.09555e-08
-3.19209e-11
-1.1192e-08
1.02286e-08
1.26933e-11
-1.271e-11
-8.33443e-15
-8.33443e-15
-5.80493e-11
4.68895e-11
-7.79959e-09
2.45532e-11
9.80821e-09
-3.62548e-12
8.33443e-15
-1.29809e-10
1.26492e-10
-3.32544e-12
-1.66689e-14
-3.06707e-12
-7.27662e-10
7.06134e-10
-8.91851e-10
8.68372e-10
-8.95093e-10
8.95101e-10
-1.03072e-08
1.03217e-08
-1.20858e-10
1.45636e-10
-8.33443e-15
-1.95758e-09
1.97467e-09
-1.55443e-09
1.48166e-09
1.98359e-11
-7.21762e-12
-1.18473e-08
1.18402e-08
-9.94849e-09
-5.13483e-11
1.04425e-08
1.66689e-14
-6.8509e-12
-1.15337e-08
3.72043e-09
4.09284e-09
8.33443e-15
-1.16225e-08
9.48997e-09
2.83121e-11
-3.67382e-11
-2.8911e-09
-4.57925e-09
1.03892e-08
8.33443e-15
-1.58021e-11
5.80576e-11
-7.576e-12
6.8509e-12
-9.94507e-09
-7.39512e-11
1.01861e-08
-2.40282e-11
8.33443e-15
-2.63753e-09
2.66467e-09
-0
-2.50033e-14
-0
-3.32544e-12
-3.62631e-11
-9.30614e-10
1.02325e-09
-2.20519e-09
2.19672e-09
-1.03926e-08
7.84057e-09
-8.47943e-09
1.10349e-08
-0
-1.35983e-08
1.36279e-08
-1.95267e-09
1.84635e-09
-8.73815e-10
8.95084e-10
-1.30129e-08
1.3013e-08
-1.14722e-08
9.28837e-09
-8.95167e-09
1.11749e-08
-1.22614e-08
1.2258e-08
-1.21195e-08
1.21061e-08
-1.40435e-11
2.73536e-11
-1.66689e-14
-8.33443e-15
-8.33443e-15
-9.59985e-10
-8.08721e-09
7.29236e-10
8.64e-09
-1.17865e-09
1.18547e-09
-1.36685e-11
-1.85434e-09
1.88581e-09
-1.14598e-11
-1.36768e-11
8.33443e-15
-6.84257e-12
-1.25122e-09
1.25724e-09
-1.17763e-08
1.17762e-08
-1.26133e-08
1.26318e-08
-8.95951e-12
-1.0683e-08
1.0665e-08
-1.85856e-09
1.811e-09
-9.9263e-12
-1.20408e-08
1.19993e-08
-2.00693e-11
1.70606e-11
-1.20975e-08
3.04056e-09
-1.50344e-10
9.25992e-09
-1.91279e-09
2.01851e-09
-1.7566e-09
1.87761e-09
-8.29276e-12
-2.92955e-11
4.21639e-11
-2.25863e-12
-8.34901e-10
8.83008e-10
-4.88481e-11
-2.04944e-11
-8.08206e-10
9.44116e-10
-1.18037e-08
1.17205e-08
-5.22819e-11
-8.80274e-10
8.39227e-10
9.05119e-12
3.39211e-12
-1.97466e-09
-4.83286e-09
-8.89698e-11
9.65809e-09
2.13111e-11
-3.41712e-12
-2.5868e-09
2.57593e-09
-1.03014e-11
1.92109e-11
2.0486e-11
8.33443e-15
-0
-1.00521e-08
8.1617e-09
8.53446e-12
-9.47178e-09
7.50313e-09
3.91385e-11
-1.49353e-11
8.33443e-15
-1.23716e-10
1.07189e-10
-2.67535e-12
-0
8.33443e-15
-2.03138e-09
-6.18364e-09
1.02662e-08
-2.26165e-09
-7.3227e-09
1.17024e-08
-3.5688e-11
8.33443e-15
-6.69255e-12
-0
1.02347e-11
-1.04397e-08
1.04551e-08
-2.20279e-11
1.70689e-11
-3.39211e-12
1.36685e-11
-1.91364e-09
2.0373e-09
1.66689e-14
-2.15095e-09
1.33291e-09
8.33443e-15
1.70772e-11
-1.21657e-08
1.21332e-08
-1.76284e-09
1.75507e-09
-0
6.84257e-12
-1.16429e-09
1.20192e-09
-0
-7.3453e-10
6.93024e-10
-1.41769e-11
-2.06223e-09
-4.28416e-09
8.4931e-09
-2.66868e-11
3.41712e-12
4.0672e-12
-1.01733e-08
1.01167e-08
-5.38154e-11
-2.23946e-11
-9.55068e-09
7.81016e-09
2.78703e-11
-3.55297e-10
-7.51263e-09
9.77076e-09
8.33443e-15
-1.36518e-11
-8.33443e-15
-1.06763e-08
1.0683e-08
-8.67614e-12
-1.70856e-11
3.33127e-11
-2.2719e-09
2.24507e-09
-1.87165e-09
-6.36537e-09
7.885e-09
-8.33443e-15
-8.33443e-15
-1.10142e-08
1.11346e-08
-1.03859e-08
8.10691e-09
-6.18763e-09
6.42916e-11
1.02566e-08
-1.02263e-10
-2.02274e-09
-6.59022e-09
9.63416e-09
-8.33443e-15
-1.26683e-12
-1.06066e-08
1.06079e-08
-1.99175e-09
9.00618e-10
2.18629e-10
-3.30158e-09
3.44579e-09
-0
-7.73852e-10
7.83211e-10
-1.30934e-11
4.78313e-11
-1.09681e-11
6.67254e-11
-1.85108e-11
3.39211e-12
)
;

boundaryField
{
    sides
    {
        type            calculated;
        value           uniform -0;
    }
    empty1
    {
        type            empty;
        value           nonuniform List<scalar> 0();
    }
    empty2
    {
        type            empty;
        value           nonuniform List<scalar> 0();
    }
}


// ************************************************************************* //
