/*--------------------------------*- C++ -*----------------------------------*\
| =========                 |                                                 |
| \\      /  F ield         | OpenFOAM: The Open Source CFD Toolbox           |
|  \\    /   O peration     | Version:  2312                                  |
|   \\  /    A nd           | Website:  www.openfoam.com                      |
|    \\/     M anipulation  |                                                 |
\*---------------------------------------------------------------------------*/
FoamFile
{
    version     2.0;
    format      ascii;
    arch        "LSB;label=32;scalar=64";
    class       surfaceScalarField;
    location    "5e-05";
    object      deltaRho_nei;
}
// * * * * * * * * * * * * * * * * * * * * * * * * * * * * * * * * * * * * * //

dimensions      [1 0 -1 0 0 0 0];

oriented        oriented;

internalField   nonuniform List<scalar> 
799
(
-0
-0
-0
3.05007e-17
-0
-0
-0
-3.05007e-17
-3.05007e-17
-0
-0
-0
-0
-0
3.05007e-17
-0
-0
3.05007e-17
-0
-3.05007e-17
-3.05007e-17
-0
-0
-0
9.1502e-17
-3.05007e-17
-3.05007e-17
3.05007e-17
-0
-0
-0
-0
-0
-0
-0
-0
-0
-0
-0
-0
-0
-0
-0
-0
-0
3.05007e-17
-0
-0
-0
-0
6.10014e-17
-0
-0
-0
-0
3.05007e-17
3.05007e-17
-0
-0
3.05007e-17
3.05007e-17
-0
3.05007e-17
3.05007e-17
3.05007e-17
-0
-0
3.05007e-17
-0
-0
-0
-0
3.05007e-17
-0
-0
6.10014e-17
3.05007e-17
-0
-0
3.05007e-17
3.05007e-17
3.05007e-17
-0
-0
6.10014e-17
3.05007e-17
3.05007e-17
3.05007e-17
-0
-0
-0
-3.05007e-17
3.05007e-17
3.05007e-17
-0
-0
3.05007e-17
-0
-0
3.05007e-17
-0
3.05007e-17
-0
-0
3.05007e-17
3.05007e-17
-0
3.05007e-17
-0
-0
-0
6.10014e-17
3.05007e-17
3.05007e-17
-0
-0
6.10014e-17
3.05007e-17
3.05007e-17
-0
-0
-0
3.05007e-17
-0
3.05007e-17
3.05007e-17
3.05007e-17
-0
-0
-0
-0
-0
-0
-0
-3.05007e-17
-0
-0
3.05007e-17
-0
-0
-0
-0
3.05007e-17
3.05007e-17
-0
-0
-3.05007e-17
-0
-0
3.05007e-17
3.05007e-17
-3.05007e-17
-0
-0
-3.05007e-17
3.05007e-17
-0
-0
-0
-0
-0
-0
3.05007e-17
-3.05007e-17
3.05007e-17
-0
-0
-0
-0
3.05007e-17
-0
-0
-3.05007e-17
-0
-0
-0
-0
-0
3.05007e-17
-3.05007e-17
-0
-0
-0
-0
-0
-0
-3.05007e-17
-0
3.05007e-17
3.05007e-17
-0
-0
-0
-0
-0
3.05007e-17
-0
-0
-0
-0
3.05007e-17
-0
-0
-3.05007e-17
-0
-0
3.05007e-17
3.05007e-17
-0
-0
-3.05007e-17
-0
-0
3.05007e-17
-3.05007e-17
3.05007e-17
-0
-0
-3.05007e-17
-3.05007e-17
-0
3.05007e-17
-3.05007e-17
-3.05007e-17
-0
-0
-0
-0
3.05007e-17
-3.05007e-17
-0
-3.05007e-17
3.05007e-17
-0
-0
-0
-0
-0
-0
-3.05007e-17
3.05007e-17
6.10014e-17
-0
-0
3.05007e-17
-0
3.05007e-17
-6.10014e-17
3.05007e-17
-0
-0
-0
3.05007e-17
3.05007e-17
-0
3.05007e-17
-0
3.05007e-17
-0
-0
-0
3.05007e-17
-3.05007e-17
-0
-0
3.05007e-17
-0
3.05007e-17
3.05007e-17
-0
-0
-0
-0
-0
3.05007e-17
-0
-0
-0
3.05007e-17
-0
-0
-6.10014e-17
-0
-9.1502e-17
3.05007e-17
-0
3.05007e-17
3.05007e-17
3.05007e-17
-0
3.05007e-17
-0
3.05007e-17
3.05007e-17
-0
-0
3.05007e-17
-0
3.05007e-17
-0
-6.10014e-17
3.05007e-17
3.05007e-17
3.05007e-17
3.05007e-17
3.05007e-17
-0
-0
-0
-0
-0
-0
-0
-0
3.05007e-17
3.05007e-17
-0
3.05007e-17
3.05007e-17
-0
-0
-0
3.05007e-17
-0
-0
-0
-0
-0
-0
-0
-0
3.05007e-17
3.05007e-17
-0
3.05007e-17
-0
-0
3.05007e-17
3.05007e-17
-0
6.10014e-17
-3.05007e-17
-0
3.05007e-17
-0
-3.05007e-17
-0
-0
-0
3.05007e-17
-0
-0
-3.05007e-17
3.05007e-17
3.05007e-17
3.05007e-17
3.05001e-17
-3.04976e-17
3.0494e-17
-4.01101e-12
-9.96315e-12
-1.39204e-11
-1.74393e-11
-1.92933e-11
-1.84128e-11
-1.44018e-11
-5.78052e-12
3.89909e-12
8.44055e-12
1.26513e-11
1.72366e-11
1.43443e-11
1.4751e-11
9.20108e-12
5.92104e-12
-8.72935e-18
2.93492e-12
-4.6835e-12
-4.34165e-12
-2.28316e-12
-1.40906e-12
-3.25465e-13
2.88847e-13
-4.60787e-18
1.71044e-12
3.24359e-12
1.76697e-12
3.8598e-12
-2.2231e-12
4.24632e-12
2.677e-13
-5.18907e-13
-3.89731e-12
-3.96686e-11
-3.56456e-05
3.66794e-05
-3.16243e-09
-4.8828e-06
-0.000476444
0.00231742
-0.00100271
0.00120822
0.000279618
1.84562e-05
0.0135299
1.16039e-07
-6.6576e-08
3.95506e-08
1.23961e-09
1.55062e-10
2.04095e-12
8.81607e-14
5.26854e-15
0.0397116
-1.40983e-15
8.86618e-17
-0
-0
-1.1417e-16
-6.31587e-14
-6.68662e-17
-2.77273e-14
-3.16785e-13
16.7246
-8.66012e-10
-8.63119e-10
1.00415e-08
-6.62387e-10
9.8768e-10
-1.31376e-09
1.33737e-09
-6.89924e-11
-8.46237e-09
-2.73369e-12
9.04481e-09
-9.98268e-09
1.0293e-11
9.29255e-09
7.00675e-11
-1.0683e-08
2.83953e-11
9.93142e-09
-8.33443e-15
4.99899e-11
-7.18121e-09
-2.56625e-10
9.62839e-09
-1.05009e-08
9.42188e-10
-6.06953e-10
-3.21125e-10
1.09153e-08
-1.7164e-09
1.76842e-09
-2.02801e-09
2.04982e-09
1.80024e-11
-1.66689e-14
-9.3916e-09
1.16703e-08
-1.00814e-08
-1.15357e-10
9.39152e-09
6.8834e-11
-1.03341e-08
1.66688e-14
8.33441e-15
9.0586e-09
-2.03437e-09
2.23699e-09
-8.25075e-10
9.19554e-10
-5.17651e-11
-6.94886e-09
-1.26191e-10
-2.46207e-10
9.86649e-09
-1.26372e-08
1.26463e-08
-1.69901e-09
1.70818e-09
-8.33443e-15
-1.28661e-08
9.90069e-09
1.4827e-09
-0
-1.1138e-08
3.81966e-11
9.42236e-09
8.33443e-15
-9.84459e-09
1.1354e-08
-0
-1.6983e-09
1.64974e-09
4.8173e-12
3.19875e-11
-8.0763e-09
6.25879e-09
2.03081e-09
-9.56609e-10
9.02869e-10
-1.8858e-09
2.03294e-09
-1.24903e-08
1.24903e-08
-1.45572e-08
1.45572e-08
-1.097e-08
1.09308e-08
-0
-9.1022e-10
8.52637e-10
-0
-8.33443e-15
2.01777e-11
-7.66292e-09
8.65599e-09
7.52774e-10
-1.09259e-08
-9.99462e-11
1.09961e-08
-8.33443e-15
-1.11921e-08
9.27797e-09
9.50708e-10
-8.33443e-15
8.33443e-15
-0
-6.93091e-11
5.80826e-11
-5.74911e-09
-2.01588e-09
9.80816e-09
-8.33443e-15
-1.66689e-14
-1.33151e-10
1.26483e-10
-0
3.75049e-13
8.33443e-15
-7.52666e-10
6.96783e-10
-8.8765e-10
8.81433e-10
-8.95093e-10
8.95101e-10
-1.02927e-08
1.03196e-08
-1.20849e-10
1.5032e-10
-1.70772e-11
-1.95759e-09
1.97465e-09
-1.5555e-09
1.44446e-09
3.71882e-11
1.7719e-11
-1.18626e-08
1.18514e-08
-9.56596e-09
-3.73723e-10
1.03824e-08
-8.33443e-15
-0
-1.15474e-08
-2.72785e-11
7.83375e-09
-8.33443e-15
-1.16335e-08
7.40769e-09
2.08482e-09
3.67298e-11
-4.5731e-11
-7.46136e-09
1.03892e-08
4.22556e-11
-5.80576e-11
5.39238e-11
-0
-8.33443e-15
-9.7833e-09
-2.20145e-10
1.01499e-08
-8.33443e-15
1.35768e-11
-2.63755e-09
2.6511e-09
-0
2.50033e-14
1.37435e-11
-1.23433e-11
-1.40018e-12
-9.75295e-10
1.02326e-09
-2.20014e-09
2.19673e-09
-1.03926e-08
7.84058e-09
-8.47942e-09
1.10349e-08
2.95872e-11
-1.36279e-08
1.3585e-08
-1.95265e-09
1.88319e-09
-8.74582e-10
8.88258e-10
-1.3013e-08
1.3013e-08
-1.14525e-08
9.28838e-09
-8.97137e-09
1.1175e-08
-1.22614e-08
1.22598e-08
-1.21126e-08
1.21106e-08
-1.66689e-14
1.36685e-11
8.33443e-15
-0
8.33443e-15
9.50125e-11
-9.12014e-09
8.33441e-15
9.36089e-09
-1.17862e-09
1.18548e-09
3.49129e-11
-1.88923e-09
1.87098e-09
3.43378e-12
-8.33443e-15
-0
6.00079e-12
-1.2504e-09
1.25722e-09
-1.17762e-08
1.17763e-08
-1.25947e-08
1.26043e-08
-8.33443e-15
-1.07009e-08
1.06453e-08
-1.84452e-09
1.79734e-09
5.3257e-12
-1.20759e-08
1.20363e-08
-1.36518e-11
3.74633e-11
-1.2111e-08
3.04742e-09
-1.07789e-10
9.27924e-09
-1.92057e-09
2.01849e-09
-1.75745e-09
1.83313e-09
-8.80116e-12
-4.32557e-11
4.21389e-11
4.99149e-11
-8.83283e-10
8.5307e-10
-0
5.61324e-11
-9.14379e-10
9.2568e-10
-1.18251e-08
1.17205e-08
1.14182e-12
-8.96293e-10
8.39227e-10
2.39281e-11
3.41712e-12
1.31684e-12
-5.96171e-09
-9.29245e-10
9.64178e-09
2.39531e-11
1.30267e-11
-2.5691e-09
2.58617e-09
-1.30851e-12
-8.33443e-15
2.04777e-11
-8.33443e-15
1.25683e-11
-1.00646e-08
6.28101e-09
1.85007e-09
-9.44549e-09
5.62491e-09
1.91533e-09
-8.33443e-15
9.50958e-12
-1.59296e-10
1.30559e-10
-1.66689e-14
-8.33443e-15
1.84358e-11
-0
-8.23344e-09
1.02662e-08
-9.02452e-11
-9.56457e-09
1.17371e-08
-0
7.00092e-12
-1.70939e-11
3.42545e-12
2.8012e-11
-1.04565e-08
1.04457e-08
8.33443e-15
-8.33443e-15
-1.66689e-14
7.47015e-11
-1.91206e-09
1.97464e-09
4.5781e-11
-2.17228e-09
4.37249e-10
8.71173e-10
-0
-1.21641e-08
1.21486e-08
-1.76724e-09
1.7458e-09
-0
1.43436e-11
-1.15198e-09
1.18205e-09
8.33443e-15
-7.62367e-10
6.93041e-10
5.58823e-11
-1.66689e-14
-6.38861e-09
8.46641e-09
6.84257e-12
-1.64438e-11
-2.77536e-12
-1.02175e-08
1.01167e-08
2.88371e-11
-2.24029e-11
-9.58943e-09
7.50292e-09
3.41628e-10
-0
-7.80313e-09
9.70592e-09
-8.33443e-15
-2.39281e-11
1.35685e-11
-1.06796e-08
1.06744e-08
-0
-8.25108e-13
1.70939e-11
-2.28508e-09
2.20748e-09
7.78852e-11
-8.25055e-09
5.69509e-09
2.17968e-09
9.92547e-11
-1.10718e-08
1.11065e-08
-1.03791e-08
8.16115e-09
-4.38041e-09
-1.86131e-09
1.01946e-08
1.05689e-10
3.42545e-12
-8.70149e-09
8.46236e-09
1.16033e-09
1.83524e-11
-1.06079e-08
1.06079e-08
-1.97595e-09
8.33443e-15
1.17048e-09
-3.30839e-09
3.37197e-09
3.58047e-11
-7.78044e-10
7.3853e-10
-0
8.47195e-11
-2.89538e-11
3.95885e-11
2.05277e-11
-4.09804e-11
)
;

boundaryField
{
    sides
    {
        type            calculated;
        value           uniform -0;
    }
    empty1
    {
        type            empty;
        value           nonuniform List<scalar> 0();
    }
    empty2
    {
        type            empty;
        value           nonuniform List<scalar> 0();
    }
}


// ************************************************************************* //
