/*--------------------------------*- C++ -*----------------------------------*\
| =========                 |                                                 |
| \\      /  F ield         | OpenFOAM: The Open Source CFD Toolbox           |
|  \\    /   O peration     | Version:  2312                                  |
|   \\  /    A nd           | Website:  www.openfoam.com                      |
|    \\/     M anipulation  |                                                 |
\*---------------------------------------------------------------------------*/
FoamFile
{
    version     2.0;
    format      ascii;
    arch        "LSB;label=32;scalar=64";
    class       volScalarField;
    location    "5e-05";
    object      minKappa;
}
// * * * * * * * * * * * * * * * * * * * * * * * * * * * * * * * * * * * * * //

dimensions      [0 0 0 0 0 0 0];

internalField   nonuniform List<scalar> 
800
(
4.70291e-12
1.98017e-12
1.98017e-12
2.47522e-12
2.47522e-12
6.18804e-12
6.18804e-12
2.47522e-13
2.47522e-13
8.66326e-12
4.70291e-12
4.70291e-12
5.44548e-12
5.94052e-12
6.18804e-12
4.20787e-12
7.42565e-13
7.42565e-13
6.93061e-12
3.4653e-12
2.2277e-12
2.2277e-12
3.71283e-12
8.41574e-12
8.41574e-12
1.63364e-11
1.63364e-11
1.73265e-11
2.47522e-12
2.47522e-12
4.95043e-13
4.95043e-13
7.67317e-12
9.90087e-12
8.66326e-12
8.66326e-12
3.04452e-11
4.45539e-12
4.45539e-12
2.07918e-11
4.70291e-12
1.98017e-12
1.98017e-12
9.90087e-12
6.68309e-12
6.68309e-12
1.73265e-12
1.73265e-12
6.93061e-12
1.28711e-11
5.19796e-12
1.23761e-12
1.23761e-12
1.23761e-12
1.23761e-12
5.94052e-12
5.94052e-12
1.48513e-12
1.48513e-12
0
0
1.98017e-12
1.98017e-12
2.47522e-12
2.47522e-12
7.42565e-12
1.50988e-11
1.23761e-12
1.23761e-12
5.44548e-12
8.66326e-12
4.20787e-12
4.20787e-12
9.1583e-12
1.6584e-11
1.21286e-11
2.47522e-13
2.47522e-13
2.47522e-13
2.97026e-12
2.97026e-12
2.2277e-12
7.42565e-13
7.42565e-13
9.90087e-13
9.90087e-13
2.47522e-13
2.47522e-13
1.1881e-11
2.52472e-11
2.30195e-11
1.28711e-11
9.90087e-13
9.90087e-13
7.42565e-13
7.42565e-13
3.4653e-12
3.4653e-12
8.16822e-12
1.48513e-12
1.48513e-12
1.73265e-12
1.73265e-12
7.42565e-13
7.42565e-13
8.91078e-12
7.67317e-12
7.67317e-12
1.31187e-11
1.7079e-11
4.70291e-12
4.70291e-12
1.23761e-11
4.95043e-13
4.95043e-13
3.4653e-12
7.42565e-12
2.72274e-12
4.95043e-13
4.95043e-13
1.01484e-11
1.36137e-11
2.97026e-12
2.97026e-12
2.15344e-11
1.78216e-11
1.03959e-11
1.03959e-11
1.1881e-11
6.18804e-12
6.18804e-12
6.93061e-12
1.58414e-11
1.58414e-11
1.23761e-11
1.73265e-12
1.73265e-12
1.11385e-11
9.65335e-12
9.65335e-12
7.17813e-12
7.17813e-12
7.67317e-12
7.67317e-12
1.73265e-12
1.73265e-12
2.47522e-12
2.2277e-12
2.2277e-12
7.9207e-12
1.85641e-11
2.25245e-11
3.71283e-12
3.71283e-12
1.28711e-11
9.90087e-13
9.90087e-13
1.1386e-11
2.47522e-12
2.47522e-12
8.91078e-12
8.91078e-12
2.97026e-12
2.97026e-12
1.11385e-11
1.11385e-11
1.46038e-11
5.693e-12
4.70291e-12
4.70291e-12
1.28711e-11
1.36137e-11
2.82175e-11
2.82175e-11
4.75242e-11
1.6584e-11
8.66326e-12
6.68309e-12
9.90087e-13
9.90087e-13
9.90087e-13
6.18804e-12
3.96035e-12
3.96035e-12
2.62373e-11
3.96035e-12
3.96035e-12
8.91078e-12
4.45539e-12
4.45539e-12
7.42565e-12
3.4653e-12
3.4653e-12
4.45539e-12
8.91078e-12
5.693e-12
5.693e-12
1.01484e-11
8.16822e-12
8.16822e-12
5.44548e-12
5.44548e-12
4.95043e-13
0
0
9.90087e-13
7.9207e-12
7.9207e-12
1.48513e-12
1.48513e-12
1.33662e-11
7.42565e-12
7.42565e-12
1.36137e-11
6.43557e-12
2.2277e-12
1.73265e-12
1.73265e-12
3.4653e-12
3.4653e-12
1.01484e-11
1.01484e-11
5.693e-12
5.693e-12
1.16335e-11
2.64848e-11
4.0346e-11
3.39105e-11
2.59898e-11
1.80691e-11
8.91078e-12
1.98017e-12
1.98017e-12
2.72274e-12
4.95043e-12
0
0
2.2277e-12
4.95043e-12
2.47522e-13
2.47522e-13
3.21778e-12
1.03959e-11
1.28711e-11
1.98017e-12
1.98017e-12
2.97026e-12
1.1881e-11
3.21778e-12
2.47522e-13
2.47522e-13
8.16822e-12
5.693e-12
3.21778e-12
9.90087e-13
9.90087e-13
7.42565e-13
4.95043e-13
4.95043e-13
4.70291e-12
2.54947e-11
2.35146e-11
1.1881e-11
1.1881e-11
5.19796e-12
5.19796e-12
4.20787e-12
4.95043e-13
4.95043e-13
2.72274e-12
7.67317e-12
7.67317e-12
5.19796e-12
5.19796e-12
6.43557e-12
5.94052e-12
5.94052e-12
6.68309e-12
5.19796e-12
2.47522e-13
2.47522e-13
4.95043e-13
1.6584e-11
1.63364e-11
2.47522e-12
2.47522e-12
2.00493e-11
1.21286e-11
0
0
2.97026e-12
5.19796e-12
7.9207e-12
7.42565e-13
7.42565e-13
6.43557e-12
1.98017e-12
1.98017e-12
2.47522e-13
2.47522e-13
4.95043e-12
4.95043e-13
0
0
0
3.71283e-12
7.42565e-13
7.42565e-13
5.44548e-12
9.65335e-12
1.06434e-11
1.06434e-11
7.67317e-12
7.67317e-12
4.20787e-12
4.20787e-12
4.20787e-12
4.20787e-12
3.4653e-12
3.4653e-12
1.48513e-12
1.48513e-12
7.42565e-13
0
0
7.42565e-12
2.47522e-13
2.47522e-13
7.42565e-12
7.42565e-12
9.90087e-13
9.90087e-13
9.90087e-13
9.90087e-13
5.94052e-12
4.95043e-12
4.95043e-12
9.90087e-13
0
0
8.41574e-12
1.0891e-11
6.93061e-12
6.93061e-12
4.00985e-11
4.99499e-10
4.32594e-09
3.55196e-08
2.72404e-07
1.85345e-06
1.1143e-05
6.24851e-05
0.000336935
0.00175312
0.00878348
0.0419032
0.180834
0.633372
1
1
1
1
1
1
1
1
1
1
1
1
1
1
1
1
1
1
1
1
1
1
1
1
1
1
1
1
1
1
1
1
1
1
1
1
1
1
1
1
1
1
1
1
1
1
0.765249
0.481073
0.481073
0.0653687
0.00725402
0.000173715
1.05814e-05
1.59287e-07
2.62683e-08
9.17232e-09
9.17232e-09
1.22947e-08
8.60899e-09
8.60899e-09
3.12356e-08
5.06607e-07
8.62763e-07
1.17468e-06
8.26662e-06
2.51142e-07
9.95425e-08
9.473e-08
9.36018e-08
9.36018e-08
9.45015e-08
9.45015e-08
9.47471e-08
9.47471e-08
9.3147e-08
8.92476e-08
8.72417e-08
8.72417e-08
8.16419e-08
7.8505e-08
7.64605e-08
7.50737e-08
6.95314e-08
6.31448e-08
6.09383e-08
6.02913e-08
6.02222e-08
5.72593e-08
5.55487e-08
5.36495e-08
5.06202e-08
4.52418e-08
4.31064e-08
3.71012e-08
3.71012e-08
3.67641e-08
3.59726e-08
3.44729e-08
3.22573e-08
3.09412e-08
3.00712e-08
2.57944e-08
2.57944e-08
2.67305e-08
2.28416e-08
2.16214e-08
1.83498e-08
1.33992e-08
9.86384e-09
9.01311e-09
9.01311e-09
8.71689e-09
7.75575e-09
6.82859e-09
5.87778e-09
4.26181e-09
3.09607e-10
3.09607e-10
5.90038e-09
1.11513e-08
1.43573e-08
1.51917e-08
1.55166e-08
1.58899e-08
1.62386e-08
1.68139e-08
1.88315e-08
2.09719e-08
2.32997e-08
2.45331e-08
2.60193e-08
2.39607e-08
2.37814e-08
2.37814e-08
2.616e-08
2.49992e-08
2.49992e-08
2.50796e-08
2.45987e-08
2.2163e-08
2.2163e-08
2.39732e-08
2.28523e-08
2.16214e-08
2.01171e-08
1.75645e-08
1.47722e-08
1.47722e-08
1.7987e-08
1.7987e-08
2.28313e-08
2.28313e-08
2.11324e-08
1.97757e-08
1.83922e-08
1.65799e-08
1.47558e-08
1.3034e-08
1.09491e-08
1.09491e-08
1.27991e-08
8.83463e-09
8.83463e-09
1.21119e-08
1.63447e-08
1.46917e-08
1.46917e-08
1.85512e-08
1.78671e-08
1.6841e-08
1.47267e-08
1.25781e-08
1.14155e-08
1.04403e-08
1.04403e-08
1.71542e-08
1.61614e-08
1.34916e-08
1.09823e-08
8.7946e-09
7.08875e-09
5.95863e-09
5.04809e-09
3.93608e-09
2.3401e-09
5.41912e-10
5.41912e-10
8.76649e-10
1.98701e-09
1.98701e-09
2.73164e-09
2.73164e-09
4.94913e-09
6.93986e-09
8.2297e-09
9.26153e-09
1.04441e-08
1.02897e-08
9.52145e-09
7.98682e-09
7.95302e-09
6.16764e-09
6.16764e-09
5.90783e-09
5.76982e-09
5.76982e-09
8.23128e-09
9.72161e-09
4.30366e-09
1.29059e-09
1.29059e-09
2.33853e-09
2.53893e-09
2.53893e-09
3.89821e-09
5.76138e-09
4.56547e-09
4.56547e-09
5.53164e-09
6.44664e-09
7.15646e-09
8.0852e-09
8.53451e-09
8.32768e-09
7.38245e-09
3.78372e-09
3.78372e-09
3.59026e-09
3.59026e-09
4.03131e-09
4.94641e-09
5.75758e-09
6.09331e-09
6.66349e-09
7.83735e-09
9.39827e-09
1.08992e-08
1.23461e-08
1.33787e-08
1.41364e-08
1.44132e-08
1.34917e-08
8.82595e-09
8.77286e-09
8.77286e-09
2.36532e-09
2.36532e-09
2.72667e-09
2.7313e-09
2.67591e-09
2.67591e-09
1.10524e-09
7.2933e-10
7.2933e-10
3.02083e-10
3.02083e-10
2.85738e-09
2.85738e-09
7.84034e-09
7.84034e-09
1.02821e-08
9.75657e-09
9.05146e-09
7.88505e-09
6.04627e-09
4.2866e-09
3.52818e-09
3.52818e-09
5.07606e-09
5.46691e-09
4.99221e-09
4.40309e-09
3.78718e-09
3.78718e-09
7.15812e-09
7.15812e-09
7.33603e-09
7.86413e-09
8.38769e-09
8.39116e-09
7.31768e-09
7.31768e-09
8.35637e-09
8.35637e-09
1.15269e-08
9.34818e-09
9.34818e-09
1.16251e-08
1.01554e-08
8.63256e-09
7.65978e-09
7.65978e-09
9.32965e-09
7.5394e-09
6.74576e-09
6.74576e-09
1.2061e-08
1.58845e-08
1.83452e-08
1.83452e-08
1.93269e-08
2.06297e-08
2.34931e-08
2.3006e-08
2.2138e-08
2.03733e-08
1.805e-08
1.52164e-08
1.21323e-08
9.68348e-09
7.42779e-09
5.11993e-09
3.8301e-09
3.8301e-09
6.53295e-09
5.46252e-09
4.58678e-09
3.70575e-09
1.84283e-09
3.15888e-10
3.15888e-10
3.78471e-10
4.91675e-09
7.64257e-09
7.11331e-09
6.71037e-09
6.71037e-09
7.35306e-09
8.24401e-09
8.64612e-09
8.14869e-09
7.53741e-09
6.23444e-09
6.23444e-09
8.64034e-09
6.20996e-09
5.21312e-09
5.19872e-09
3.99477e-09
3.14466e-09
2.28934e-09
1.09193e-09
2.57935e-11
2.57935e-11
7.11967e-10
1.00148e-09
1.41972e-09
1.3311e-09
1.3311e-09
2.89368e-09
2.322e-09
1.14459e-09
2.32472e-10
2.32472e-10
3.86159e-10
5.33893e-10
5.33893e-10
5.83579e-10
2.17451e-09
1.08449e-09
6.43433e-10
6.43433e-10
2.31282e-09
4.18616e-09
5.7923e-09
7.12538e-09
7.81949e-09
8.1463e-09
8.19531e-09
8.266e-09
6.25957e-09
6.25957e-09
6.71864e-09
6.75427e-09
7.35578e-09
8.01765e-09
9.00996e-09
9.80766e-09
9.81584e-09
9.44225e-09
9.44225e-09
9.9048e-09
1.16346e-08
5.13515e-09
5.13515e-09
9.3232e-09
1.1268e-08
1.04167e-08
8.56867e-09
6.97252e-09
6.79668e-09
6.79668e-09
6.99279e-09
6.99279e-09
6.38225e-09
4.52743e-09
3.59647e-09
2.86994e-09
2.86994e-09
3.1478e-09
4.96451e-09
5.69178e-09
5.69178e-09
8.82006e-09
1.14303e-08
1.11235e-08
1.02037e-08
9.00467e-09
7.52883e-09
6.46807e-09
5.54106e-09
5.54106e-09
6.44416e-09
2.55001e-09
2.55001e-09
4.48064e-09
6.75196e-09
6.77414e-10
6.77414e-10
1.61292e-10
1.61292e-10
6.8915e-10
1.67204e-09
6.11133e-09
5.43937e-09
3.55306e-09
3.55306e-09
5.13283e-09
5.13283e-09
5.22741e-09
5.52899e-09
5.99733e-09
6.05412e-09
5.64242e-09
4.89085e-09
4.1955e-09
3.93591e-09
3.37002e-09
2.71427e-09
1.22726e-09
4.13936e-10
4.13936e-10
)
;

boundaryField
{
    sides
    {
        type            calculated;
        value           uniform 0;
    }
    empty1
    {
        type            empty;
    }
    empty2
    {
        type            empty;
    }
}


// ************************************************************************* //
