/*--------------------------------*- C++ -*----------------------------------*\
| =========                 |                                                 |
| \\      /  F ield         | OpenFOAM: The Open Source CFD Toolbox           |
|  \\    /   O peration     | Version:  2312                                  |
|   \\  /    A nd           | Website:  www.openfoam.com                      |
|    \\/     M anipulation  |                                                 |
\*---------------------------------------------------------------------------*/
FoamFile
{
    version     2.0;
    format      ascii;
    arch        "LSB;label=32;scalar=64";
    class       surfaceScalarField;
    location    "5e-05";
    object      phi;
}
// * * * * * * * * * * * * * * * * * * * * * * * * * * * * * * * * * * * * * //

dimensions      [1 0 -1 0 0 0 0];

oriented        oriented;

internalField   nonuniform List<scalar> 
799
(
5.27356e-16
2.22045e-16
-4.996e-16
2.77556e-16
1.13798e-15
-6.93889e-16
-2.35922e-15
-2.77556e-17
9.71445e-16
1.05471e-15
5.27356e-16
6.10623e-16
-6.66134e-16
-2.08167e-15
-6.93889e-16
-4.71845e-16
-8.32667e-17
7.77156e-16
-9.15934e-16
3.88578e-16
-2.498e-16
-4.16334e-16
3.91354e-15
9.4369e-16
-2.498e-15
-1.83187e-15
2.13718e-15
1.94289e-15
-2.77556e-16
-3.33067e-16
5.55112e-17
-8.60423e-16
-1.44329e-15
1.11022e-15
9.71445e-16
-3.85803e-15
-3.41394e-15
-4.996e-16
3.16414e-15
2.33147e-15
5.27356e-16
2.22045e-16
-1.69309e-15
-1.11022e-15
7.49401e-16
1.13798e-15
-1.94289e-16
-7.77156e-16
1.66533e-15
1.44329e-15
-5.82867e-16
-1.38778e-16
-5.82867e-16
-1.38778e-16
1.36002e-15
-6.66134e-16
-1.4988e-15
-1.66533e-16
3.88578e-16
0
-4.16334e-16
2.22045e-16
1.02696e-15
2.77556e-16
8.32667e-16
1.69309e-15
-1.80411e-15
1.38778e-16
6.10623e-16
-2.10942e-15
-9.71445e-16
4.71845e-16
-1.02696e-15
-1.85962e-15
3.71925e-15
1.36002e-15
2.77556e-17
2.77556e-17
-1.33227e-15
3.33067e-16
5.55112e-16
2.498e-16
8.32667e-17
-1.36002e-15
1.11022e-16
3.05311e-16
-2.77556e-17
-1.33227e-15
-3.33067e-15
2.83107e-15
2.58127e-15
-1.44329e-15
1.11022e-16
3.05311e-16
-8.32667e-17
6.93889e-16
3.88578e-16
-9.15934e-16
-2.05391e-15
-1.66533e-16
9.71445e-16
1.94289e-16
-4.44089e-16
-8.32667e-17
9.99201e-16
1.13798e-15
8.60423e-16
-1.47105e-15
-1.91513e-15
-2.63678e-15
-5.27356e-16
3.60822e-15
1.38778e-15
5.55112e-17
-3.88578e-16
-8.32667e-16
1.05471e-15
3.05311e-16
5.55112e-17
-1.13798e-15
-3.08087e-15
1.52656e-15
3.33067e-16
-2.41474e-15
2.72005e-15
1.9984e-15
1.16573e-15
-1.33227e-15
-3.94129e-15
-6.93889e-16
7.77156e-16
2.91434e-15
-1.77636e-15
-1.94289e-15
1.38778e-15
-1.94289e-16
2.35922e-15
1.249e-15
-1.08247e-15
1.44329e-15
8.04912e-16
-1.66533e-15
-8.60423e-16
1.83187e-15
1.94289e-16
-2.30371e-15
-2.77556e-16
2.498e-16
8.88178e-16
2.08167e-15
-2.52576e-15
-4.91274e-15
4.16334e-16
5.57887e-15
1.44329e-15
-1.11022e-16
-1.27676e-15
-2.38698e-15
-2.77556e-16
-2.9976e-15
-9.99201e-16
-1.88738e-15
3.33067e-16
4.88498e-15
1.249e-15
-1.63758e-15
2.83107e-15
6.38378e-16
-5.27356e-16
1.44329e-15
-1.52656e-15
-7.41074e-15
-3.16414e-15
5.32907e-15
5.91194e-15
1.85962e-15
-9.71445e-16
-7.49401e-16
1.11022e-16
-1.11022e-16
6.93889e-16
8.04912e-16
-4.44089e-16
-2.94209e-15
-3.77476e-15
4.44089e-16
2.60902e-15
9.99201e-16
4.996e-16
-8.32667e-16
-1.02696e-15
3.88578e-16
-4.996e-16
9.99201e-16
1.83187e-15
-6.38378e-16
-1.13798e-15
-1.22125e-15
-9.15934e-16
3.80251e-15
6.10623e-16
-1.4988e-15
-5.55112e-17
0
1.11022e-16
1.08247e-15
8.88178e-16
9.15934e-16
-1.66533e-16
-2.10942e-15
-1.4988e-15
-8.32667e-16
1.52656e-15
2.44249e-15
-7.21645e-16
2.498e-16
1.94289e-16
-1.52656e-15
-3.88578e-16
-1.19349e-15
-1.13798e-15
1.19349e-15
-6.38378e-16
-1.30451e-15
2.96985e-15
4.57967e-15
-4.52416e-15
-3.80251e-15
2.91434e-15
2.02616e-15
9.99201e-16
-2.22045e-16
3.05311e-16
-5.55112e-16
-2.44249e-15
0
2.498e-16
5.55112e-16
1.80411e-15
2.77556e-17
3.60822e-16
1.16573e-15
-1.44329e-15
-4.02456e-15
-2.22045e-16
-3.33067e-16
1.7486e-15
1.33227e-15
3.60822e-16
-2.77556e-17
9.4369e-16
9.15934e-16
-6.38378e-16
3.60822e-16
1.11022e-16
-3.33067e-16
-8.32667e-17
-5.55112e-17
5.27356e-16
-2.85882e-15
-2.96985e-15
2.63678e-15
1.33227e-15
1.33227e-15
5.82867e-16
-7.49401e-16
4.71845e-16
-5.55112e-17
3.05311e-16
8.88178e-16
-8.60423e-16
-1.249e-15
5.82867e-16
7.21645e-16
-7.21645e-16
-6.66134e-16
-7.49401e-16
8.88178e-16
5.82867e-16
-2.77556e-17
5.55112e-17
-1.85962e-15
-2.38698e-15
1.83187e-15
-2.77556e-16
-2.2482e-15
3.05311e-15
1.36002e-15
0
3.33067e-16
5.82867e-16
8.88178e-16
-1.249e-15
8.32667e-17
7.21645e-16
-8.88178e-16
-2.22045e-16
2.498e-16
-2.77556e-17
5.82867e-16
5.55112e-16
5.55112e-17
0
0
-4.16334e-16
-7.21645e-16
8.32667e-17
-6.10623e-16
-1.08247e-15
1.249e-15
1.19349e-15
-2.63678e-15
-8.60423e-16
1.69309e-15
4.71845e-16
6.93889e-16
4.71845e-16
-8.04912e-16
3.88578e-16
9.71445e-16
1.66533e-16
-3.88578e-16
-8.32667e-17
0
-1.7486e-15
-8.32667e-16
2.77556e-17
1.44329e-15
8.32667e-16
-1.41553e-15
1.11022e-16
2.77556e-16
-1.11022e-16
8.60423e-16
-6.66134e-16
-5.55112e-16
1.47105e-15
-1.11022e-16
0
9.4369e-16
-1.22125e-15
-1.33227e-15
7.77156e-16
4.4964e-15
5.60108e-14
4.85084e-13
3.98295e-12
3.05457e-11
2.07835e-10
1.2495e-09
7.0067e-09
3.77819e-08
1.96584e-07
9.84925e-07
4.69874e-06
2.02771e-05
7.10161e-05
0.000190014
0.000422897
0.000892398
0.00179096
0.00340485
0.00610897
0.0103179
0.0163856
0.0244777
0.0344746
0.0459606
0.0583511
0.070648
0.0824246
0.0932476
0.102735
0.111168
0.11804
0.123987
0.128384
0.131756
0.133721
0.134697
0.134735
0.134385
0.133555
0.132809
0.130915
0.128768
0.125331
0.120654
0.116019
0.110082
0.103615
0.0962471
0.0892456
0.0820316
0.0767953
0.0738915
0.0728623
0.0744387
0.0812168
0.0845322
0.0716235
0.0137527
0.00180707
0.00017624
9.09498e-06
4.1119e-06
7.30024e-06
5.65976e-07
6.31754e-08
1.5265e-09
9.4354e-11
1.45844e-12
2.54546e-13
1.12216e-13
-1.51434e-13
-1.1835e-13
-8.43769e-14
-3.1336e-13
-5.24389e-12
-9.33315e-12
-1.35651e-11
-1.06154e-10
-3.24066e-09
-2.18801e-08
-1.71108e-08
-1.62836e-08
-1.60897e-08
-1.62524e-08
-1.62444e-08
-1.64377e-08
-1.62866e-08
-1.64357e-08
-1.60115e-08
-1.53412e-08
-1.49964e-08
-1.50261e-08
-1.40338e-08
-1.34946e-08
-1.31432e-08
-1.29048e-08
-1.19521e-08
-1.08543e-08
-1.0475e-08
-1.03638e-08
-1.03519e-08
-9.84255e-09
-9.54856e-09
-9.22208e-09
-8.70133e-09
-7.7768e-09
-7.40974e-09
-6.37752e-09
-6.58405e-09
-6.31958e-09
-6.18353e-09
-5.92573e-09
-5.54488e-09
-5.31864e-09
-5.16908e-09
-4.43393e-09
-4.73378e-09
-4.59482e-09
-3.92636e-09
-3.71662e-09
-3.15424e-09
-2.30325e-09
-1.69554e-09
-1.54931e-09
-1.58767e-09
-1.49839e-09
-1.33318e-09
-1.1738e-09
-1.01036e-09
-7.32584e-10
5.32197e-11
1.01424e-09
1.91686e-09
2.46794e-09
2.61137e-09
2.66724e-09
2.7314e-09
2.79134e-09
2.89022e-09
3.23703e-09
3.60497e-09
4.0051e-09
4.21711e-09
4.5988e-09
4.4726e-09
4.11873e-09
4.08791e-09
4.62809e-09
4.49678e-09
4.29725e-09
4.37385e-09
4.31106e-09
4.2284e-09
3.8097e-09
4.5309e-09
4.12088e-09
3.92821e-09
3.71662e-09
3.45803e-09
3.01925e-09
2.53927e-09
3.45425e-09
3.09187e-09
4.23077e-09
3.92458e-09
4.0918e-09
3.63256e-09
3.39935e-09
3.16153e-09
2.85002e-09
2.53645e-09
2.24048e-09
1.8821e-09
2.66947e-09
2.20011e-09
1.51863e-09
2.08196e-09
3.16187e-09
2.80959e-09
2.52544e-09
3.29371e-09
3.18886e-09
3.07126e-09
2.89489e-09
2.53145e-09
2.16212e-09
1.96226e-09
1.79463e-09
2.94871e-09
3.23983e-09
2.77807e-09
2.31914e-09
1.8878e-09
1.51175e-09
1.21852e-09
1.02426e-09
8.67743e-10
6.76593e-10
4.02252e-10
9.31522e-11
-1.50692e-10
-3.43249e-10
-3.41558e-10
-6.29058e-10
-4.69555e-10
-8.50733e-10
-1.19293e-09
-1.41465e-09
-1.59201e-09
-1.79529e-09
-1.863e-09
-1.76875e-09
-1.63669e-09
-1.3729e-09
-1.36708e-09
-1.06019e-09
-1.32063e-09
-1.01552e-09
-9.91804e-10
-1.41492e-09
-1.68166e-09
-1.6711e-09
-7.39774e-10
-2.21846e-10
-4.01982e-10
-5.8769e-10
-4.3643e-10
-6.70084e-10
-9.90354e-10
-1.19552e-09
-7.8478e-10
-9.50862e-10
-1.10815e-09
-1.23016e-09
-1.38981e-09
-1.47439e-09
-1.46704e-09
-1.43149e-09
-1.269e-09
-6.50402e-10
-6.67171e-10
-6.17149e-10
-6.92964e-10
-8.50264e-10
-9.89701e-10
-1.04741e-09
-1.14542e-09
-1.3472e-09
-1.61552e-09
-1.87352e-09
-2.12223e-09
-2.29973e-09
-2.42999e-09
-2.64751e-09
-2.47755e-09
-2.31915e-09
-1.51714e-09
-1.50801e-09
-1.56028e-09
-4.06587e-10
-4.68702e-10
-4.74387e-10
-4.69498e-10
-4.59977e-10
-5.50372e-10
1.89985e-10
1.25368e-10
1.62615e-10
5.19265e-11
7.2734e-10
4.9117e-10
1.68616e-09
1.34771e-09
1.9712e-09
1.76745e-09
1.67711e-09
1.5559e-09
1.3554e-09
1.03933e-09
7.36847e-10
6.06477e-10
8.72546e-10
1.12757e-09
9.39735e-10
8.58137e-10
7.5687e-10
6.50999e-10
1.24054e-09
1.23045e-09
1.26103e-09
1.35181e-09
1.4418e-09
1.4424e-09
1.59621e-09
1.25787e-09
1.62292e-09
1.43642e-09
2.26801e-09
1.98142e-09
1.60691e-09
2.15161e-09
1.9983e-09
1.74566e-09
1.4839e-09
1.31668e-09
1.7788e-09
1.60372e-09
1.29599e-09
1.15956e-09
2.07322e-09
2.73046e-09
3.22764e-09
3.15346e-09
3.3222e-09
3.54615e-09
4.04999e-09
4.03836e-09
3.95463e-09
3.80541e-09
3.50208e-09
3.10271e-09
2.61564e-09
2.08549e-09
1.66455e-09
1.2768e-09
8.80092e-10
6.58375e-10
1.12956e-09
1.12298e-09
9.38982e-10
7.88447e-10
6.37002e-10
3.16774e-10
5.42997e-11
6.50573e-11
8.45162e-10
1.5136e-09
1.31372e-09
1.22274e-09
1.15348e-09
1.26396e-09
1.41711e-09
1.56405e-09
1.48623e-09
1.40072e-09
1.29565e-09
1.07167e-09
1.68347e-09
1.48523e-09
1.06746e-09
8.96108e-10
8.93635e-10
6.86683e-10
5.40552e-10
3.93527e-10
1.87697e-10
-4.43379e-12
-1.22384e-10
-1.7215e-10
-2.44043e-10
-4.92065e-10
-2.28809e-10
-8.02984e-10
-4.97408e-10
3.9914e-10
1.96749e-10
3.99609e-11
-6.63789e-11
-1.11072e-10
-9.17737e-11
-1.00314e-10
5.22732e-10
3.73788e-10
1.86418e-10
-1.10603e-10
-3.97563e-10
-7.19581e-10
-9.95669e-10
-1.22482e-09
-1.34413e-09
-1.40031e-09
-1.40874e-09
-1.42089e-09
-1.53558e-09
-1.07599e-09
-1.1549e-09
-1.16103e-09
-1.26443e-09
-1.3782e-09
-1.54877e-09
-1.68589e-09
-1.7106e-09
-1.6873e-09
-1.62308e-09
-1.70259e-09
-2.06845e-09
-1.99992e-09
-8.82707e-10
-1.60261e-09
-1.93991e-09
-1.93691e-09
-1.79058e-09
-1.47291e-09
-1.19854e-09
-1.16832e-09
-1.26143e-09
-1.20203e-09
-1.25674e-09
-1.09708e-09
-7.78243e-10
-6.18215e-10
-4.9333e-10
-5.41093e-10
-8.53376e-10
-1.3609e-09
-9.78389e-10
-1.51613e-09
-1.96481e-09
-2.00012e-09
-1.91208e-09
-1.75397e-09
-1.54786e-09
-1.29417e-09
-1.11183e-09
-9.52483e-10
-1.10772e-09
-1.29793e-09
-4.38334e-10
-7.702e-10
-1.16503e-09
-1.16063e-09
1.16444e-10
3.0019e-10
-2.77254e-11
1.18462e-10
2.87415e-10
1.05345e-09
1.05051e-09
9.35003e-10
6.10754e-10
1.13515e-09
8.82309e-10
8.98567e-10
9.50408e-10
1.03091e-09
1.04384e-09
1.04068e-09
9.69905e-10
8.40714e-10
7.21187e-10
6.76565e-10
5.79291e-10
4.66571e-10
2.1096e-10
7.11537e-11
)
;

boundaryField
{
    sides
    {
        type            calculated;
        value           uniform 0;
    }
    empty1
    {
        type            empty;
        value           nonuniform List<scalar> 0();
    }
    empty2
    {
        type            empty;
        value           nonuniform List<scalar> 0();
    }
}


// ************************************************************************* //
