/*--------------------------------*- C++ -*----------------------------------*\
| =========                 |                                                 |
| \\      /  F ield         | OpenFOAM: The Open Source CFD Toolbox           |
|  \\    /   O peration     | Version:  2312                                  |
|   \\  /    A nd           | Website:  www.openfoam.com                      |
|    \\/     M anipulation  |                                                 |
\*---------------------------------------------------------------------------*/
FoamFile
{
    version     2.0;
    format      ascii;
    arch        "LSB;label=32;scalar=64";
    class       volVectorField;
    location    "5e-05";
    object      U;
}
// * * * * * * * * * * * * * * * * * * * * * * * * * * * * * * * * * * * * * //

dimensions      [0 1 -1 0 0 0 0];

internalField   nonuniform List<vector> 
800
(
(2.39104e-13 0 0)
(4.78228e-13 0 0)
(-2.52706e-13 0 0)
(-4.64626e-13 0 0)
(9.56455e-13 0 0)
(8.55239e-13 0 0)
(-2.02691e-12 0 0)
(-9.80138e-13 0 0)
(4.78113e-13 0 0)
(9.56417e-13 0 0)
(4.78189e-13 0 0)
(4.78208e-13 0 0)
(4.78247e-13 0 0)
(-1.56624e-12 0 0)
(-1.48375e-12 0 0)
(2.65255e-13 0 0)
(-1.04095e-12 0 0)
(9.56379e-13 0 0)
(-2.08037e-13 0 0)
(-7.48207e-13 0 0)
(1.19527e-12 0 0)
(-1.61777e-12 0 0)
(1.85812e-12 0 0)
(3.3461e-12 0 0)
(-1.85288e-12 0 0)
(-2.04066e-12 0 0)
(6.79684e-14 0 0)
(2.39116e-12 0 0)
(4.78228e-13 0 0)
(-4.78228e-13 0 0)
(-1.91299e-17 0 0)
(-1.91299e-17 0 0)
(-1.37515e-12 0 0)
(-5.37741e-13 0 0)
(1.91299e-12 0 0)
(-1.45867e-12 0 0)
(-3.57707e-12 0 0)
(-1.17961e-12 0 0)
(4.78017e-13 0 0)
(3.82479e-12 0 0)
(1.91301e-17 0 0)
(9.56015e-13 0 0)
(-9.56359e-13 0 0)
(-1.30969e-12 0 0)
(-1.2488e-13 0 0)
(9.56359e-13 0 0)
(4.78189e-13 0 0)
(-5.74967e-13 0 0)
(-3.81507e-13 0 0)
(2.86929e-12 0 0)
(-5.2039e-13 0 0)
(-4.36046e-13 0 0)
(1.04086e-13 0 0)
(-1.06052e-12 0 0)
(9.56493e-13 0 0)
(9.56398e-13 0 0)
(-2.09321e-12 0 0)
(-2.97814e-13 0 0)
(3.82597e-17 0 0)
(4.78132e-13 0 0)
(-4.78228e-13 0 0)
(-1.91299e-17 0 0)
(4.78228e-13 0 0)
(9.56455e-13 0 0)
(-4.78189e-13 0 0)
(1.91266e-12 0 0)
(-1.61839e-13 0 0)
(-1.7508e-12 0 0)
(1.91259e-12 0 0)
(-1.33966e-12 0 0)
(-1.62573e-12 0 0)
(9.63189e-14 0 0)
(4.78189e-13 0 0)
(-2.39032e-12 0 0)
(9.56532e-13 0 0)
(3.34667e-12 0 0)
(-9.56474e-13 0 0)
(9.56474e-13 0 0)
(-9.56455e-13 0 0)
(-9.56493e-13 0 0)
(1.43464e-12 0 0)
(-4.78189e-13 0 0)
(9.56436e-13 0 0)
(-9.5634e-13 0 0)
(-9.56436e-13 0 0)
(9.56379e-13 0 0)
(-4.78228e-13 0 0)
(4.78208e-13 0 0)
(-2.86137e-12 0 0)
(-1.44163e-12 0 0)
(5.25939e-12 0 0)
(-1.03563e-12 0 0)
(-8.772e-13 0 0)
(9.56398e-13 0 0)
(-4.78189e-13 0 0)
(4.78323e-13 0 0)
(4.78189e-13 0 0)
(3.47016e-14 0 0)
(-1.46927e-12 0 0)
(-1.37804e-12 0 0)
(8.99735e-13 0 0)
(4.78208e-13 0 0)
(-1.65971e-13 0 0)
(-3.12257e-13 0 0)
(4.78189e-13 0 0)
(9.56436e-13 0 0)
(9.56455e-13 0 0)
(-3.45001e-23 0 0)
(-1.91278e-12 0 0)
(-1.30791e-12 0 0)
(-2.9947e-12 0 0)
(2.39049e-12 0 0)
(2.86849e-12 0 0)
(-4.78285e-13 0 0)
(4.78228e-13 0 0)
(-1.16457e-12 0 0)
(2.08248e-13 0 0)
(9.56359e-13 0 0)
(-4.78247e-13 0 0)
(6.00008e-13 0 0)
(-2.63273e-12 0 0)
(-1.31407e-12 0 0)
(2.86879e-12 0 0)
(-2.38997e-12 0 0)
(3.48663e-23 0 0)
(2.86797e-12 0 0)
(4.78228e-13 0 0)
(1.30693e-12 0 0)
(-3.58698e-12 0 0)
(-1.54384e-12 0 0)
(-2.29558e-16 0 0)
(1.43474e-12 0 0)
(2.31931e-12 0 0)
(-5.08376e-12 0 0)
(1.80684e-12 0 0)
(1.14779e-16 0 0)
(2.39142e-13 0 0)
(3.10769e-12 0 0)
(-1.06429e-12 0 0)
(-3.70182e-13 0 0)
(2.391e-12 0 0)
(-1.116e-12 0 0)
(-1.27518e-12 0 0)
(4.78189e-13 0 0)
(1.91297e-12 0 0)
(-1.74954e-12 0 0)
(-1.57661e-12 0 0)
(9.35087e-13 0 0)
(-4.7817e-13 0 0)
(1.91283e-12 0 0)
(5.66455e-13 0 0)
(-4.02613e-12 0 0)
(-3.71144e-12 0 0)
(4.3029e-12 0 0)
(3.82465e-12 0 0)
(-9.56398e-13 0 0)
(8.24268e-13 0 0)
(-3.10847e-12 0 0)
(-1.06419e-13 0 0)
(-1.43233e-12 0 0)
(-2.22486e-12 0 0)
(-3.86997e-14 0 0)
(-2.51715e-12 0 0)
(3.34497e-12 0 0)
(4.30221e-12 0 0)
(-2.39037e-12 0 0)
(9.56359e-13 0 0)
(2.39043e-12 0 0)
(-9.56493e-13 0 0)
(4.78189e-13 0 0)
(1.43472e-12 0 0)
(-4.77887e-12 0 0)
(-5.84488e-12 0 0)
(2.01923e-12 0 0)
(5.25714e-12 0 0)
(3.34736e-12 0 0)
(1.38959e-13 0 0)
(-1.09538e-12 0 0)
(-1.81121e-23 0 0)
(-1.91299e-17 0 0)
(3.82598e-17 0 0)
(9.56417e-13 0 0)
(8.622e-24 0 0)
(-8.53364e-13 0 0)
(-3.45017e-12 0 0)
(-1.91247e-12 0 0)
(1.91268e-12 0 0)
(1.91234e-12 0 0)
(1.91299e-17 0 0)
(6.14356e-13 0 0)
(-1.92634e-12 0 0)
(3.55567e-13 0 0)
(-9.64528e-14 0 0)
(-3.81641e-13 0 0)
(1.91264e-12 0 0)
(4.39451e-13 0 0)
(-9.17679e-13 0 0)
(-8.16654e-13 0 0)
(-1.35047e-12 0 0)
(1.2114e-12 0 0)
(3.34679e-12 0 0)
(-2.29857e-12 0 0)
(-9.24929e-14 0 0)
(-1.91299e-17 0 0)
(-1.91299e-17 0 0)
(4.78266e-13 0 0)
(9.56417e-13 0 0)
(4.78208e-13 0 0)
(9.56436e-13 0 0)
(-1.43457e-12 0 0)
(-1.59593e-12 0 0)
(-7.9498e-13 0 0)
(-4.78113e-13 0 0)
(2.86893e-12 0 0)
(3.87418e-13 0 0)
(-8.65607e-13 0 0)
(1.19554e-12 0 0)
(-1.02375e-12 0 0)
(-1.12822e-12 0 0)
(3.68231e-13 0 0)
(-2.34731e-12 0 0)
(7.83789e-13 0 0)
(7.28064e-13 0 0)
(-1.44538e-12 0 0)
(7.65197e-17 0 0)
(4.30332e-12 0 0)
(1.4342e-12 0 0)
(-7.17175e-12 0 0)
(1.43447e-12 0 0)
(2.39047e-12 0 0)
(9.56455e-13 0 0)
(4.78189e-13 0 0)
(-4.78266e-13 0 0)
(9.56493e-13 0 0)
(-1.9127e-12 0 0)
(-1.43464e-12 0 0)
(9.56302e-13 0 0)
(-4.78094e-13 0 0)
(1.43468e-12 0 0)
(9.56302e-13 0 0)
(-4.78266e-13 0 0)
(9.56417e-13 0 0)
(9.06584e-13 0 0)
(-3.41246e-12 0 0)
(-1.79744e-12 0 0)
(-1.33909e-16 0 0)
(5.73897e-17 0 0)
(2.39058e-12 0 0)
(-5.73895e-17 0 0)
(4.78208e-13 0 0)
(-4.78208e-13 0 0)
(1.91285e-12 0 0)
(-5.20371e-13 0 0)
(-4.36065e-13 0 0)
(9.56455e-13 0 0)
(-7.73134e-13 0 0)
(2.94906e-13 0 0)
(-4.78208e-13 0 0)
(4.78323e-13 0 0)
(6.63041e-14 0 0)
(-4.53958e-12 0 0)
(6.48139e-13 0 0)
(2.39037e-12 0 0)
(9.56495e-17 0 0)
(1.91278e-12 0 0)
(-9.56493e-13 0 0)
(-9.17221e-24 0 0)
(4.78266e-13 0 0)
(-4.78247e-13 0 0)
(9.56474e-13 0 0)
(1.55996e-25 0 0)
(-9.56359e-13 0 0)
(-9.56398e-13 0 0)
(1.9127e-12 0 0)
(-7.48246e-13 0 0)
(-3.91454e-13 0 0)
(-7.73114e-13 0 0)
(-1.91299e-17 0 0)
(9.56455e-13 0 0)
(-3.82597e-17 0 0)
(3.82597e-17 0 0)
(-1.13817e-22 0 0)
(-2.89448e-12 0 0)
(2.55384e-14 0 0)
(2.0239e-12 0 0)
(-2.50198e-12 0 0)
(4.78228e-13 0 0)
(2.86879e-12 0 0)
(-4.78208e-13 0 0)
(4.78208e-13 0 0)
(1.91299e-17 0 0)
(9.56417e-13 0 0)
(-9.71606e-14 0 0)
(-1.33754e-12 0 0)
(1.43466e-12 0 0)
(-5.09945e-13 0 0)
(-7.87538e-13 0 0)
(3.41047e-13 0 0)
(1.91299e-17 0 0)
(1.91299e-17 0 0)
(9.56436e-13 0 0)
(9.91935e-24 0 0)
(4.04051e-36 0 0)
(1.95465e-29 0 0)
(-7.19144e-24 0 0)
(-7.48303e-13 0 0)
(-2.08171e-13 0 0)
(1.31288e-13 0 0)
(-1.08771e-12 0 0)
(5.73896e-17 0 0)
(1.43461e-12 0 0)
(-4.78151e-13 0 0)
(-2.82571e-12 0 0)
(1.39107e-12 0 0)
(9.56513e-13 0 0)
(-9.56493e-17 0 0)
(1.19543e-12 0 0)
(-5.50768e-13 0 0)
(-6.44772e-13 0 0)
(1.19562e-12 0 0)
(2.39104e-13 0 0)
(-2.54436e-24 0 0)
(-4.78189e-13 0 0)
(4.78132e-13 0 0)
(-9.56206e-13 0 0)
(-1.43466e-12 0 0)
(-2.36316e-23 0 0)
(-1.91298e-17 0 0)
(2.39093e-12 0 0)
(-1.03563e-12 0 0)
(-8.77238e-13 0 0)
(9.56513e-13 0 0)
(-4.78247e-13 0 0)
(4.78189e-13 0 0)
(7.93354e-13 0 0)
(-1.85411e-12 0 0)
(1.06083e-12 0 0)
(9.56359e-13 0 0)
(-9.56455e-13 0 0)
(9.56417e-13 0 0)
(-1.73125e-14 0 0)
(-1.42024e-12 0 0)
(-7.12779e-14 0 0)
(1.52088e-12 0 0)
(4.67494e-12 0 0)
(6.69378e-11 0 0)
(6.12787e-10 0 0)
(5.01283e-09 0 0)
(4.15794e-08 0 0)
(2.86382e-07 0 0)
(1.68798e-06 0 0)
(9.4277e-06 0 0)
(5.06974e-05 0 0)
(0.000263391 0 0)
(0.00132261 0 0)
(0.00644973 0 0)
(0.0287343 0 0)
(0.0950566 0 0)
(0.226179 0 0)
(0.492148 0 0)
(1.02223 0 0)
(2.01852 0 0)
(3.77577 0 0)
(6.67516 0 0)
(11.1429 0 0)
(17.5738 0 0)
(26.2407 0 0)
(37.2276 0 0)
(50.4112 0 0)
(65.4717 0 0)
(81.7879 0 0)
(99.1512 0 0)
(116.94 0 0)
(135.46 0 0)
(154.062 0 0)
(173.119 0 0)
(192.306 0 0)
(211.339 0 0)
(229.701 0 0)
(245.963 0 0)
(259.738 0 0)
(267.99 0 0)
(275.454 0 0)
(275.51 0 0)
(283.857 0 0)
(279.034 0 0)
(290.173 0 0)
(284.731 0 0)
(293.975 0 0)
(297.666 0 0)
(298.055 0 0)
(287.161 0 0)
(289.919 0 0)
(288.37 0 0)
(288.07 0 0)
(290.283 0 0)
(291.526 0 0)
(286.891 0 0)
(273.134 0 0)
(245.977 0 0)
(182.328 0 0)
(86.1129 0 0)
(12.4578 0 0)
(1.1433 0 0)
(0.0687134 0 0)
(-0.00465746 0 0)
(0.0103118 0 0)
(0.000694478 0 0)
(0.000138716 0 0)
(2.10185e-06 0 0)
(1.51012e-07 0 0)
(1.6231e-09 0 0)
(6.79215e-11 0 0)
(4.27101e-11 0 0)
(-5.94349e-12 0 0)
(-1.51668e-11 0 0)
(-4.63809e-12 0 0)
(-1.06791e-11 0 0)
(-4.18765e-11 0 0)
(-4.94371e-10 0 0)
(-3.8965e-10 0 0)
(-9.67271e-10 0 0)
(-8.40362e-09 0 0)
(-1.8671e-07 0 0)
(-1.85588e-07 0 0)
(-1.56808e-07 0 0)
(-1.67772e-07 0 0)
(-1.53935e-07 0 0)
(-1.66918e-07 0 0)
(-1.58141e-07 0 0)
(-1.67244e-07 0 0)
(-1.58657e-07 0 0)
(-1.67989e-07 0 0)
(-1.52918e-07 0 0)
(-1.52762e-07 0 0)
(-1.47289e-07 0 0)
(-1.52527e-07 0 0)
(-1.28711e-07 0 0)
(-1.33509e-07 0 0)
(-1.27209e-07 0 0)
(-1.29611e-07 0 0)
(-1.09528e-07 0 0)
(-1.07207e-07 0 0)
(-1.03384e-07 0 0)
(-1.05727e-07 0 0)
(-9.98453e-08 0 0)
(-9.71089e-08 0 0)
(-9.12926e-08 0 0)
(-9.32557e-08 0 0)
(-7.17967e-08 0 0)
(-8.38315e-08 0 0)
(-6.08628e-08 0 0)
(-7.02522e-08 0 0)
(-6.11765e-08 0 0)
(-6.52081e-08 0 0)
(-5.77999e-08 0 0)
(-6.03361e-08 0 0)
(-5.13406e-08 0 0)
(-5.42833e-08 0 0)
(-4.64051e-08 0 0)
(-4.65031e-08 0 0)
(-4.64783e-08 0 0)
(-4.09359e-08 0 0)
(-3.76495e-08 0 0)
(-3.29621e-08 0 0)
(-2.9814e-08 0 0)
(-1.73275e-08 0 0)
(-1.62965e-08 0 0)
(-1.16371e-08 0 0)
(-2.01378e-08 0 0)
(-8.2524e-09 0 0)
(-1.7516e-08 0 0)
(-5.67659e-09 0 0)
(-1.3502e-08 0 0)
(-9.65932e-10 0 0)
(1.59665e-09 0 0)
(1.9701e-08 0 0)
(2.33391e-08 0 0)
(2.48068e-08 0 0)
(3.24772e-08 0 0)
(2.08853e-08 0 0)
(3.59261e-08 0 0)
(1.95898e-08 0 0)
(3.40913e-08 0 0)
(3.39547e-08 0 0)
(3.94545e-08 0 0)
(4.06089e-08 0 0)
(4.30801e-08 0 0)
(4.69407e-08 0 0)
(4.3609e-08 0 0)
(3.96952e-08 0 0)
(4.26228e-08 0 0)
(4.85224e-08 0 0)
(4.12631e-08 0 0)
(4.26513e-08 0 0)
(4.4177e-08 0 0)
(4.17399e-08 0 0)
(4.22246e-08 0 0)
(3.83005e-08 0 0)
(4.8081e-08 0 0)
(3.39169e-08 0 0)
(4.4374e-08 0 0)
(3.00142e-08 0 0)
(3.97788e-08 0 0)
(2.12505e-08 0 0)
(3.40325e-08 0 0)
(3.21069e-08 0 0)
(3.12562e-08 0 0)
(4.81459e-08 0 0)
(3.05252e-08 0 0)
(4.58558e-08 0 0)
(2.6841e-08 0 0)
(3.85668e-08 0 0)
(2.46997e-08 0 0)
(3.13434e-08 0 0)
(1.99165e-08 0 0)
(2.41011e-08 0 0)
(1.77493e-08 0 0)
(3.16408e-08 0 0)
(1.26165e-08 0 0)
(2.03241e-08 0 0)
(2.51552e-08 0 0)
(3.36745e-08 0 0)
(2.25482e-08 0 0)
(2.96327e-08 0 0)
(3.42489e-08 0 0)
(2.93061e-08 0 0)
(3.11052e-08 0 0)
(2.59925e-08 0 0)
(2.50612e-08 0 0)
(2.07463e-08 0 0)
(1.80041e-08 0 0)
(2.22672e-08 0 0)
(3.3425e-08 0 0)
(2.93909e-08 0 0)
(2.40963e-08 0 0)
(2.23726e-08 0 0)
(1.53065e-08 0 0)
(1.4945e-08 0 0)
(9.30587e-09 0 0)
(1.1183e-08 0 0)
(6.18056e-09 0 0)
(7.27857e-09 0 0)
(3.23591e-10 0 0)
(1.35162e-09 0 0)
(-4.62869e-09 0 0)
(-2.0064e-09 0 0)
(-5.40547e-09 0 0)
(-6.2853e-09 0 0)
(-3.06846e-09 0 0)
(-1.39557e-08 0 0)
(-8.85724e-09 0 0)
(-1.87144e-08 0 0)
(-1.44436e-08 0 0)
(-2.08943e-08 0 0)
(-1.70847e-08 0 0)
(-1.8307e-08 0 0)
(-1.44832e-08 0 0)
(-1.37697e-08 0 0)
(-1.35844e-08 0 0)
(-8.69553e-09 0 0)
(-1.75538e-08 0 0)
(-1.73998e-09 0 0)
(-1.57309e-08 0 0)
(-1.267e-08 0 0)
(-2.12273e-08 0 0)
(-1.16145e-08 0 0)
(-3.79726e-09 0 0)
(-1.25545e-09 0 0)
(-6.70111e-09 0 0)
(-7.18214e-09 0 0)
(-1.5475e-09 0 0)
(-1.24794e-08 0 0)
(-8.07545e-09 0 0)
(-1.40073e-08 0 0)
(-6.10979e-09 0 0)
(-1.20118e-08 0 0)
(-1.18584e-08 0 0)
(-1.29156e-08 0 0)
(-1.46302e-08 0 0)
(-1.49892e-08 0 0)
(-1.46357e-08 0 0)
(-1.53611e-08 0 0)
(-6.98884e-09 0 0)
(-6.34813e-09 0 0)
(-6.5209e-09 0 0)
(-5.20377e-09 0 0)
(-8.66372e-09 0 0)
(-7.62579e-09 0 0)
(-1.21798e-08 0 0)
(-8.09152e-09 0 0)
(-1.4624e-08 0 0)
(-1.20865e-08 0 0)
(-2.02117e-08 0 0)
(-1.77912e-08 0 0)
(-2.4673e-08 0 0)
(-2.23666e-08 0 0)
(-2.61186e-08 0 0)
(-2.68161e-08 0 0)
(-2.03461e-08 0 0)
(-2.63836e-08 0 0)
(-2.61941e-09 0 0)
(-2.87453e-08 0 0)
(-1.81012e-09 0 0)
(-1.01576e-08 0 0)
(7.8455e-10 0 0)
(-1.16552e-08 0 0)
(2.07169e-09 0 0)
(-1.12098e-08 0 0)
(2.80064e-09 0 0)
(1.72483e-10 0 0)
(3.10465e-09 0 0)
(1.44733e-10 0 0)
(4.74021e-09 0 0)
(6.1924e-09 0 0)
(7.67608e-09 0 0)
(1.92945e-08 0 0)
(7.68341e-09 0 0)
(2.84601e-08 0 0)
(6.91253e-09 0 0)
(2.45891e-08 0 0)
(7.23822e-09 0 0)
(1.84703e-08 0 0)
(2.33125e-09 0 0)
(9.47913e-09 0 0)
(3.7654e-09 0 0)
(1.36929e-08 0 0)
(9.20037e-09 0 0)
(8.96902e-09 0 0)
(9.62832e-09 0 0)
(4.38608e-09 0 0)
(1.08992e-08 0 0)
(1.05632e-08 0 0)
(1.40621e-08 0 0)
(1.06301e-08 0 0)
(1.69443e-08 0 0)
(1.19368e-08 0 0)
(1.88463e-08 0 0)
(1.17655e-08 0 0)
(1.71426e-08 0 0)
(1.39604e-08 0 0)
(1.63513e-08 0 0)
(2.80906e-08 0 0)
(1.25455e-08 0 0)
(2.00802e-08 0 0)
(2.17475e-08 0 0)
(1.70603e-08 0 0)
(1.78727e-08 0 0)
(1.11276e-08 0 0)
(1.60762e-08 0 0)
(1.77828e-08 0 0)
(1.39549e-08 0 0)
(1.16334e-08 0 0)
(1.47971e-08 0 0)
(2.44374e-08 0 0)
(2.99667e-08 0 0)
(3.33225e-08 0 0)
(3.23821e-08 0 0)
(3.51135e-08 0 0)
(3.71578e-08 0 0)
(4.375e-08 0 0)
(3.72351e-08 0 0)
(4.01465e-08 0 0)
(3.50402e-08 0 0)
(3.31122e-08 0 0)
(2.76897e-08 0 0)
(2.31906e-08 0 0)
(1.85248e-08 0 0)
(1.39825e-08 0 0)
(1.15688e-08 0 0)
(6.57019e-09 0 0)
(5.95265e-09 0 0)
(1.66511e-08 0 0)
(5.41243e-09 0 0)
(1.22641e-08 0 0)
(3.51576e-09 0 0)
(7.67111e-09 0 0)
(7.03026e-10 0 0)
(4.53944e-10 0 0)
(1.64574e-09 0 0)
(1.84321e-08 0 0)
(1.13211e-08 0 0)
(1.2484e-08 0 0)
(1.16398e-08 0 0)
(1.11818e-08 0 0)
(1.4315e-08 0 0)
(1.42201e-08 0 0)
(1.774e-08 0 0)
(1.25423e-08 0 0)
(1.60082e-08 0 0)
(1.01299e-08 0 0)
(1.30015e-08 0 0)
(1.86351e-08 0 0)
(1.0346e-08 0 0)
(9.2033e-09 0 0)
(8.73184e-09 0 0)
(7.36436e-09 0 0)
(6.37863e-09 0 0)
(3.9763e-09 0 0)
(3.69148e-09 0 0)
(-3.16273e-10 0 0)
(2.81264e-10 0 0)
(-2.47184e-09 0 0)
(-9.15351e-10 0 0)
(-3.8078e-09 0 0)
(-3.9044e-09 0 0)
(-3.11898e-09 0 0)
(-9.32436e-09 0 0)
(6.47135e-11 0 0)
(4.27795e-09 0 0)
(-3.38761e-10 0 0)
(9.76604e-10 0 0)
(-2.80521e-09 0 0)
(4.8573e-10 0 0)
(-1.96621e-09 0 0)
(2.38297e-09 0 0)
(6.17818e-09 0 0)
(1.74286e-09 0 0)
(2.43549e-09 0 0)
(-4.48244e-09 0 0)
(-3.32636e-09 0 0)
(-1.10414e-08 0 0)
(-8.24775e-09 0 0)
(-1.62626e-08 0 0)
(-9.83646e-09 0 0)
(-1.79321e-08 0 0)
(-1.00189e-08 0 0)
(-1.91675e-08 0 0)
(-1.2466e-08 0 0)
(-1.04043e-08 0 0)
(-1.27247e-08 0 0)
(-1.03103e-08 0 0)
(-1.49915e-08 0 0)
(-1.25253e-08 0 0)
(-1.7816e-08 0 0)
(-1.55362e-08 0 0)
(-1.86784e-08 0 0)
(-1.59537e-08 0 0)
(-1.70899e-08 0 0)
(-1.884e-08 0 0)
(-2.03396e-08 0 0)
(-1.50382e-08 0 0)
(-8.76697e-09 0 0)
(-2.36782e-08 0 0)
(-1.51825e-08 0 0)
(-2.35713e-08 0 0)
(-1.5023e-08 0 0)
(-1.44435e-08 0 0)
(-1.20352e-08 0 0)
(-1.09736e-08 0 0)
(-1.43972e-08 0 0)
(-1.06328e-08 0 0)
(-1.6742e-08 0 0)
(-5.04729e-09 0 0)
(-9.39017e-09 0 0)
(-1.10245e-09 0 0)
(-9.31229e-09 0 0)
(-2.1953e-09 0 0)
(-1.51541e-08 0 0)
(-1.007e-08 0 0)
(-1.39249e-08 0 0)
(-1.65834e-08 0 0)
(-2.08883e-08 0 0)
(-1.86507e-08 0 0)
(-1.98742e-08 0 0)
(-1.59738e-08 0 0)
(-1.70061e-08 0 0)
(-9.08621e-09 0 0)
(-1.0095e-08 0 0)
(-8.43474e-09 0 0)
(-1.34944e-08 0 0)
(-9.15646e-09 0 0)
(-1.21843e-09 0 0)
(-1.41947e-08 0 0)
(-8.23776e-09 0 0)
(-9.61071e-09 0 0)
(1.06494e-08 0 0)
(-7.69474e-09 0 0)
(5.02337e-09 0 0)
(-2.27262e-09 0 0)
(9.34991e-09 0 0)
(1.0398e-08 0 0)
(9.73318e-09 0 0)
(8.92919e-09 0 0)
(6.55619e-09 0 0)
(1.11344e-08 0 0)
(6.84228e-09 0 0)
(1.168e-08 0 0)
(7.88125e-09 0 0)
(1.27452e-08 0 0)
(9.33519e-09 0 0)
(1.15497e-08 0 0)
(7.94182e-09 0 0)
(8.88015e-09 0 0)
(5.81303e-09 0 0)
(7.87262e-09 0 0)
(4.51913e-09 0 0)
(4.81562e-09 0 0)
(1.24938e-10 0 0)
(2.16223e-09 0 0)
)
;

boundaryField
{
    sides
    {
        type            fixedValue;
        value           uniform (0 0 0);
    }
    empty1
    {
        type            empty;
    }
    empty2
    {
        type            empty;
    }
}


// ************************************************************************* //
