/*--------------------------------*- C++ -*----------------------------------*\
| =========                 |                                                 |
| \\      /  F ield         | OpenFOAM: The Open Source CFD Toolbox           |
|  \\    /   O peration     | Version:  2312                                  |
|   \\  /    A nd           | Website:  www.openfoam.com                      |
|    \\/     M anipulation  |                                                 |
\*---------------------------------------------------------------------------*/
FoamFile
{
    version     2.0;
    format      ascii;
    arch        "LSB;label=32;scalar=64";
    class       surfaceScalarField;
    location    "5e-05";
    object      deltaRho_nei;
}
// * * * * * * * * * * * * * * * * * * * * * * * * * * * * * * * * * * * * * //

dimensions      [1 0 -1 0 0 0 0];

oriented        oriented;

internalField   nonuniform List<scalar> 
799
(
-0
-0
-0
3.05007e-17
-0
-0
-0
-3.05007e-17
-3.05007e-17
-0
-0
-0
-0
-0
3.05007e-17
-0
-0
3.05007e-17
-0
-3.05007e-17
-3.05007e-17
-0
-0
-0
9.1502e-17
-3.05007e-17
-3.05007e-17
3.05007e-17
-0
-0
-0
-0
-0
-0
-0
-0
-0
-0
-0
-0
-0
-0
-0
-0
-0
3.05007e-17
-0
-0
-0
-0
6.10014e-17
-0
-0
-0
-0
3.05007e-17
3.05007e-17
-0
-0
3.05007e-17
3.05007e-17
-0
3.05007e-17
3.05007e-17
3.05007e-17
-0
-0
3.05007e-17
-0
-0
-0
-0
3.05007e-17
-0
-0
6.10014e-17
3.05007e-17
-0
-0
3.05007e-17
3.05007e-17
3.05007e-17
-0
-0
6.10014e-17
3.05007e-17
3.05007e-17
3.05007e-17
-0
-0
-0
-3.05007e-17
3.05007e-17
3.05007e-17
-0
-0
3.05007e-17
-0
-0
3.05007e-17
-0
3.05007e-17
-0
-0
3.05007e-17
3.05007e-17
-0
3.05007e-17
-0
-0
-0
6.10014e-17
3.05007e-17
3.05007e-17
-0
-0
6.10014e-17
3.05007e-17
3.05007e-17
-0
-0
-0
3.05007e-17
-0
3.05007e-17
3.05007e-17
3.05007e-17
-0
-0
-0
-0
-0
-0
-0
-3.05007e-17
-0
-0
3.05007e-17
-0
-0
-0
-0
3.05007e-17
3.05007e-17
-0
-0
-3.05007e-17
-0
-0
3.05007e-17
3.05007e-17
-3.05007e-17
-0
-0
-3.05007e-17
3.05007e-17
-0
-0
-0
-0
-0
-0
3.05007e-17
-3.05007e-17
3.05007e-17
-0
-0
-0
-0
3.05007e-17
-0
-0
-3.05007e-17
-0
-0
-0
-0
-0
3.05007e-17
-3.05007e-17
-0
-0
-0
-0
-0
-0
-3.05007e-17
-0
3.05007e-17
3.05007e-17
-0
-0
-0
-0
-0
3.05007e-17
-0
-0
-0
-0
3.05007e-17
-0
-0
-3.05007e-17
-0
-0
3.05007e-17
3.05007e-17
-0
-0
-3.05007e-17
-0
-0
3.05007e-17
-3.05007e-17
3.05007e-17
-0
-0
-3.05007e-17
-3.05007e-17
-0
3.05007e-17
-3.05007e-17
-3.05007e-17
-0
-0
-0
-0
3.05007e-17
-3.05007e-17
-0
-3.05007e-17
3.05007e-17
-0
-0
-0
-0
-0
-0
-3.05007e-17
3.05007e-17
6.10014e-17
-0
-0
3.05007e-17
-0
3.05007e-17
-6.10014e-17
3.05007e-17
-0
-0
-0
3.05007e-17
3.05007e-17
-0
3.05007e-17
-0
3.05007e-17
-0
-0
-0
3.05007e-17
-3.05007e-17
-0
-0
3.05007e-17
-0
3.05007e-17
3.05007e-17
-0
-0
-0
-0
-0
3.05007e-17
-0
-0
-0
3.05007e-17
-0
-0
-6.10014e-17
-0
-9.1502e-17
3.05007e-17
-0
3.05007e-17
3.05007e-17
3.05007e-17
-0
3.05007e-17
-0
3.05007e-17
3.05007e-17
-0
-0
3.05007e-17
-0
3.05007e-17
-0
-6.10014e-17
3.05007e-17
3.05007e-17
3.05007e-17
3.05007e-17
3.05007e-17
-0
-0
-0
-0
-0
-0
-0
-0
3.05007e-17
3.05007e-17
-0
3.05007e-17
3.05007e-17
-0
-0
-0
3.05007e-17
-0
-0
-0
-0
-0
-0
-0
-0
3.05007e-17
3.05007e-17
-0
3.05007e-17
-0
-0
3.05007e-17
3.05007e-17
-0
-0
-3.05007e-17
-3.05007e-17
3.05007e-17
3.05007e-17
-3.05007e-17
-0
-3.05007e-17
-3.05007e-17
-6.10014e-17
-0
3.05007e-17
-0
-6.10014e-17
-3.05007e-17
-0
-0
3.04976e-17
-0
-4.01113e-12
-9.96324e-12
-1.39204e-11
-1.74393e-11
-1.92933e-11
-1.84128e-11
-1.44019e-11
-5.78061e-12
3.89901e-12
8.44049e-12
1.26513e-11
1.72367e-11
1.43443e-11
1.47509e-11
9.20106e-12
5.92101e-12
1.74587e-17
2.93494e-12
-4.68356e-12
-4.34174e-12
-2.28199e-12
-1.41058e-12
-3.25801e-13
2.89143e-13
-1.53515e-18
1.68835e-12
3.29385e-12
1.85795e-12
5.15562e-12
2.76744e-12
2.99746e-12
-2.55173e-12
1.92033e-12
-3.5933e-12
-3.95699e-12
-1.19296e-11
5.57151e-11
-4.05671e-11
-0.000230135
0.00243412
6.53886
0.160666
0.000432752
1.85944e-07
-1.42516e-09
-3.4834e-09
1.21697e-12
-2.952e-09
1.90047e-09
-7.50151e-14
1.70868e-12
5.02627e-10
-7.50143e-14
5.03014e-10
9.90496e-09
-1.98103e-08
1.08494e-08
-1.87027e-09
2.17356e-09
6.86068e-09
-8.11785e-09
-6.82588e-12
-3.42545e-12
-8.19053e-09
-4.02894e-10
9.39638e-10
-1.12399e-08
1.20258e-08
-3.08423e-09
2.63404e-09
-9.8578e-10
1.13251e-09
-1.26317e-10
-8.07974e-09
-9.53914e-10
1.10551e-08
-1.08777e-08
5.40486e-11
1.03824e-08
9.09286e-12
-1.1315e-08
5.87326e-11
9.48728e-09
2.46699e-12
4.73812e-11
-8.39491e-09
-3.79224e-10
1.05327e-08
-9.74791e-09
2.66468e-10
-1.02288e-09
-3.52629e-11
9.03682e-09
-1.71793e-09
1.84233e-09
-1.89857e-09
1.83885e-09
1.27225e-10
-3.15875e-11
-8.3216e-09
1.05721e-08
-1.02116e-08
-3.41211e-11
9.85422e-09
1.03139e-10
-8.46575e-09
-6.47417e-10
-1.32684e-11
5.46145e-09
-3.32494e-10
6.21923e-10
-8.7124e-10
9.15504e-10
-8.8845e-11
-8.72198e-09
2.56568e-09
-2.1979e-09
1.01569e-08
-1.11066e-08
1.10354e-08
-1.48898e-09
1.31049e-09
1.66689e-14
-1.3136e-08
1.06437e-08
1.22483e-09
1.66689e-14
-1.04612e-08
-8.3344e-15
1.02987e-08
-0
-1.02651e-08
1.10722e-08
2.7612e-11
-8.81424e-10
8.7659e-10
-2.04944e-11
2.70035e-12
-9.48726e-09
8.78308e-09
1.26578e-09
-8.86517e-10
7.90512e-10
-7.92613e-10
8.17999e-10
-1.29412e-08
1.29409e-08
-1.43115e-08
1.43112e-08
-1.30881e-08
1.30795e-08
-8.33443e-15
-1.60228e-09
1.60227e-09
8.33443e-15
2.03027e-11
-2.70036e-12
-1.07342e-08
8.36765e-09
1.55105e-09
-9.97579e-09
-1.14848e-11
7.81481e-09
8.33443e-15
-9.44628e-09
5.19629e-09
2.09468e-09
-1.66689e-14
1.66689e-14
8.33443e-15
-4.25056e-13
5.30653e-11
-8.95126e-09
-1.46444e-10
9.28962e-09
2.38365e-11
-4.16721e-14
-4.5931e-11
3.94802e-11
-8.33443e-15
-0
1.05847e-11
-2.52598e-09
2.47448e-09
-2.0556e-09
2.00406e-09
-1.25723e-09
1.26159e-09
-1.03926e-08
1.03752e-08
3.41712e-12
1.96026e-11
5.74659e-11
-9.26138e-10
1.12734e-09
-8.69548e-10
8.17799e-10
6.84257e-12
3.40878e-12
-1.07665e-08
1.07499e-08
-7.49652e-09
-7.57648e-10
9.09466e-09
-8.33443e-15
-0
-9.03264e-09
-8.23506e-10
1.05584e-08
2.5545e-11
-1.05361e-08
8.47946e-09
1.03069e-09
1.66689e-14
2.03443e-11
-8.0353e-09
1.03736e-08
1.22349e-11
-1.66047e-10
2.1182e-10
8.33443e-15
-0
-1.02563e-08
6.88922e-11
1.001e-08
1.66689e-14
3.24293e-11
-7.006e-10
7.34505e-10
-0
-8.33443e-15
3.86718e-12
-5.45822e-11
3.42378e-11
-9.36073e-10
9.56559e-10
-2.02674e-09
2.02249e-09
-1.00646e-08
6.94891e-09
-6.81223e-09
9.95533e-09
1.56604e-11
-1.18377e-08
1.18377e-08
-8.57863e-10
8.39802e-10
-1.17861e-09
1.27777e-09
-1.3464e-08
1.3464e-08
-1.05942e-08
9.55563e-09
-9.86305e-09
1.08802e-08
-1.0906e-08
1.08745e-08
-1.20118e-08
1.19791e-08
-8.33443e-15
1.36935e-11
-0
8.33443e-15
-0
-1.66689e-14
-7.02066e-09
-3.94218e-12
7.87185e-09
-6.79873e-10
7.48582e-10
1.29684e-11
-7.99438e-10
7.65126e-10
2.05027e-11
-0
2.50033e-14
2.53033e-11
-2.0558e-09
2.05323e-09
-1.08811e-08
1.08812e-08
-1.19949e-08
1.19996e-08
-0
-1.08299e-08
1.08329e-08
-1.33578e-09
1.3021e-09
-0
-1.16206e-08
1.14806e-08
8.33443e-15
1.76273e-11
-9.93141e-09
6.38216e-10
-2.33337e-09
1.17631e-08
-8.55596e-10
9.94089e-10
-9.59993e-10
9.56867e-10
-2.05027e-11
-7.50515e-11
5.47489e-11
2.3078e-11
-2.16294e-09
2.08743e-09
8.33443e-15
3.43378e-12
-2.0678e-09
1.98325e-09
-1.14882e-08
1.14644e-08
7.81769e-12
-7.80211e-10
7.82336e-10
5.66741e-13
3.42545e-12
1.11048e-10
-4.41398e-09
-1.66226e-09
9.33012e-09
1.87908e-10
1.66689e-14
-2.12258e-09
2.00738e-09
-7.65101e-12
-1.70772e-11
6.37584e-12
-8.33443e-15
5.95078e-12
-1.04644e-08
6.20416e-09
2.07031e-09
-1.02355e-08
5.64513e-09
2.35045e-09
8.33443e-15
1.95942e-11
-5.80826e-11
9.55959e-12
-0
-2.50033e-14
2.39198e-11
3.42545e-12
-8.31811e-09
9.39845e-09
-0
-6.80199e-09
8.77668e-09
-0
1.36935e-11
-3.41712e-12
-6.81756e-12
8.33443e-15
-1.06079e-08
1.05908e-08
8.33443e-15
-3.0504e-11
1.83524e-11
7.78436e-12
-1.81751e-09
1.8004e-09
3.88051e-11
-8.14665e-10
-3.74599e-10
1.69795e-09
4.06637e-11
-1.26956e-08
1.2726e-08
-1.77574e-09
1.70472e-09
-0
-1.66689e-14
-7.81161e-10
6.67513e-10
2.41032e-11
-1.14252e-09
1.09363e-09
8.33443e-15
-0
-8.56144e-09
1.03072e-08
-0
-8.21108e-11
4.32974e-11
-1.21498e-08
1.21486e-08
-1.25933e-11
1.54187e-12
-1.16088e-08
9.16957e-09
3.50663e-10
2.11828e-10
-1.00657e-08
1.1166e-08
6.41751e-13
-5.05983e-11
3.75799e-11
-1.18446e-08
1.18616e-08
-5.00066e-14
-3.41712e-12
4.20722e-11
-3.4768e-09
3.4933e-09
-4.2764e-11
-1.0444e-08
9.41758e-09
9.98781e-10
1.58854e-11
-1.27909e-08
1.28448e-08
-1.1257e-08
9.2857e-09
-9.08415e-09
3.65464e-11
1.01501e-08
1.06014e-11
-2.81954e-11
-8.29497e-09
6.12063e-09
2.10873e-09
-0
-1.15439e-08
1.15581e-08
-2.04249e-09
3.41711e-12
2.07035e-09
-3.45038e-09
3.50863e-09
2.56617e-11
-9.19571e-10
8.50237e-10
4.5831e-11
3.41628e-11
8.33443e-15
2.39115e-11
3.39378e-11
-5.8041e-11
)
;

boundaryField
{
    sides
    {
        type            calculated;
        value           uniform -0;
    }
    empty1
    {
        type            empty;
        value           nonuniform List<scalar> 0();
    }
    empty2
    {
        type            empty;
        value           nonuniform List<scalar> 0();
    }
}


// ************************************************************************* //
