/*--------------------------------*- C++ -*----------------------------------*\
| =========                 |                                                 |
| \\      /  F ield         | OpenFOAM: The Open Source CFD Toolbox           |
|  \\    /   O peration     | Version:  2312                                  |
|   \\  /    A nd           | Website:  www.openfoam.com                      |
|    \\/     M anipulation  |                                                 |
\*---------------------------------------------------------------------------*/
FoamFile
{
    version     2.0;
    format      ascii;
    arch        "LSB;label=32;scalar=64";
    class       surfaceScalarField;
    location    "5e-05";
    object      deltaRho_own;
}
// * * * * * * * * * * * * * * * * * * * * * * * * * * * * * * * * * * * * * //

dimensions      [1 0 -1 0 0 0 0];

oriented        oriented;

internalField   nonuniform List<scalar> 
799
(
-0
-0
-0
-0
-6.10014e-17
-0
-0
-0
3.05007e-17
3.05007e-17
-0
-0
-0
-0
-0
-3.05007e-17
-0
-0
-3.05007e-17
-0
3.05007e-17
-0
-0
-0
-0
-0
3.05007e-17
-3.05007e-17
-3.05007e-17
-0
-0
-0
-0
-0
-0
-0
-0
-0
-0
-0
-0
-0
-0
-0
-0
-0
-3.05007e-17
-0
-0
-0
-0
-3.05007e-17
-0
-6.10014e-17
-0
-0
-3.05007e-17
-0
-0
-3.05007e-17
-3.05007e-17
-0
-3.05007e-17
-3.05007e-17
-3.05007e-17
-3.05007e-17
-0
-0
-3.05007e-17
-0
-0
-0
-0
-3.05007e-17
-0
-0
-3.05007e-17
-6.10014e-17
-0
-0
-3.05007e-17
-3.05007e-17
-3.05007e-17
-0
-0
-3.05007e-17
-3.05007e-17
-3.05007e-17
-3.05007e-17
-0
-0
-0
3.05007e-17
-3.05007e-17
-3.05007e-17
-0
-0
-3.05007e-17
-0
-0
-3.05007e-17
-0
-3.05007e-17
-0
-6.10014e-17
-3.05007e-17
-0
-0
-0
-0
-0
-0
-3.05007e-17
-3.05007e-17
-3.05007e-17
-0
-0
-3.05007e-17
-3.05007e-17
3.05007e-17
-0
-0
-0
-3.05007e-17
-0
-3.05007e-17
-3.05007e-17
-0
-0
-0
-0
-0
-0
-0
-0
3.05007e-17
-0
-3.05007e-17
-0
-0
-0
-0
-0
-6.10014e-17
-6.10014e-17
-0
-0
3.05007e-17
-0
-0
-3.05007e-17
-0
-0
-0
-0
-3.05007e-17
-3.05007e-17
-0
-0
-0
-0
-0
-0
-9.1502e-17
3.05007e-17
-3.05007e-17
-0
-0
-0
-0
-3.05007e-17
-0
-0
-0
-0
-0
-0
-0
-0
-3.05007e-17
3.05007e-17
-0
-0
-0
-0
-0
-0
3.05007e-17
-0
-3.05007e-17
6.10014e-17
-0
-0
-0
-0
-3.05007e-17
-0
-0
-0
-0
-0
-0
-0
3.05007e-17
-0
-0
-3.05007e-17
3.05007e-17
-3.05007e-17
-0
-0
3.05007e-17
-0
3.05007e-17
-3.05007e-17
-0
-6.10014e-17
-0
-0
3.05007e-17
-0
-0
-3.05007e-17
3.05007e-17
-0
-0
-0
-0
-0
-3.05007e-17
3.05007e-17
-0
-3.05007e-17
-6.10014e-17
-0
-0
-0
-0
6.10014e-17
-0
-0
-3.05007e-17
-0
-0
-0
-3.05007e-17
-0
-3.05007e-17
3.05007e-17
-3.05007e-17
3.05007e-17
-0
-0
-3.05007e-17
-0
-3.05007e-17
-3.05007e-17
-0
-3.05007e-17
-0
-0
-0
-3.05007e-17
3.05007e-17
-0
-6.10014e-17
-3.05007e-17
-0
-3.05007e-17
-0
-0
-0
-0
-3.05007e-17
-0
-3.05007e-17
-0
-0
-3.05007e-17
-3.05007e-17
-0
-0
-0
-0
-0
-3.05007e-17
-0
-3.05007e-17
-3.05007e-17
-3.05007e-17
-0
-3.05007e-17
-0
-3.05007e-17
3.05007e-17
-0
-0
-3.05007e-17
-0
-3.05007e-17
-0
3.05007e-17
-3.05007e-17
-0
-3.05007e-17
-0
-3.05007e-17
-0
-6.10014e-17
-0
-0
-0
-0
-0
-3.05007e-17
-0
-3.05007e-17
-0
-3.05007e-17
-0
-0
-0
-0
-3.05007e-17
-0
-0
-0
-0
-3.05007e-17
-0
-0
-3.05007e-17
-3.05007e-17
-3.05007e-17
-0
-0
-0
-0
-3.05007e-17
-3.05007e-17
-0
-0
3.05007e-17
-0
-9.1502e-17
6.10014e-17
-0
-0
-0
6.10014e-17
6.10014e-17
-6.10014e-17
-3.05007e-17
3.05007e-17
9.15021e-17
-1.22003e-16
1.22e-16
-9.14927e-17
-0
6.09733e-17
1.20275e-11
1.38404e-11
1.79371e-11
2.04255e-11
1.9971e-11
1.59456e-11
8.88219e-12
-5.68556e-12
-1.14295e-11
-9.77421e-12
-1.92207e-11
-1.93292e-11
-1.47509e-11
-1.48134e-11
-5.92101e-12
-3.09302e-12
-1.48543e-17
2.38431e-12
3.73273e-12
2.36194e-12
1.1614e-12
3.34501e-13
-2.89143e-13
-8.91346e-13
1.34702e-18
-2.29782e-12
-1.85795e-12
-1.90935e-12
-2.76744e-12
-1.03699e-12
-4.63207e-14
1.06429e-12
2.32716e-12
6.50183e-12
1.19296e-11
2.12738e-11
1.06666e-11
3.5653e-11
0.032553
6.57125
0.00655876
-0.00220284
1.85772e-07
-1.42368e-09
-9.10488e-10
-1.21697e-12
-5.21385e-09
1.13358e-12
7.50151e-14
5.51665e-09
-3.92591e-09
7.50143e-14
1.00539e-09
-0
1.55855e-12
-5.58409e-13
2.50033e-14
-8.33443e-15
3.42545e-12
6.83423e-12
1.71597e-09
5.96012e-09
-1.63342e-08
1.66688e-14
3.42544e-12
3.42544e-12
8.33443e-15
-8.33443e-15
5.50756e-10
1.66689e-14
5.68716e-10
-4.39008e-10
-8.42812e-09
-0
1.11435e-08
-1.08746e-08
4.95364e-10
9.94104e-09
-1.66689e-14
-1.1306e-08
1.82775e-09
7.71826e-09
8.33443e-15
-1.32993e-09
-7.44812e-09
6.06328e-11
1.05395e-08
-9.71278e-09
2.17628e-10
-1.14105e-09
1.66921e-09
7.39192e-09
-1.71792e-09
1.89322e-09
-1.89857e-09
1.9141e-09
-6.74755e-11
-1.77227e-09
-6.61496e-09
1.05402e-08
-1.00559e-08
3.31351e-10
9.61713e-09
-1.04489e-10
-9.04249e-09
-1.66688e-14
4.20724e-09
1.25421e-09
-3.5658e-10
6.13847e-10
-8.64214e-10
9.1547e-10
-1.76978e-09
-6.98306e-09
2.56569e-09
-2.19331e-09
1.01523e-08
-1.11066e-08
1.11169e-08
-1.48215e-09
1.32609e-09
-9.02369e-11
-1.31292e-08
1.18753e-08
3.58047e-11
-3.5813e-11
-1.04575e-08
1.02246e-10
1.02286e-08
-9.07044e-10
-9.34037e-09
1.10462e-08
-2.76036e-11
-8.6063e-10
8.81416e-10
-3.21459e-11
-1.88242e-09
-7.60218e-09
1.00578e-08
5.76659e-11
-8.79691e-10
7.32821e-10
-8.08331e-10
8.13115e-10
-1.29363e-08
1.29412e-08
-1.43114e-08
1.43109e-08
-1.30881e-08
1.30881e-08
-8.6178e-12
-1.60224e-09
1.60229e-09
-0
-8.33443e-15
-8.6453e-10
-9.85893e-09
9.94165e-09
-2.2953e-11
-9.97584e-09
2.27527e-09
5.54005e-09
-1.89608e-11
-9.4463e-09
7.3213e-09
8.33443e-15
-3.03123e-11
-8.33443e-15
-1.66689e-14
-1.70606e-11
3.37294e-11
-9.11307e-09
5.4232e-11
9.28965e-09
-2.93372e-12
-5.8341e-14
-6.93424e-12
3.94885e-11
-1.51853e-11
-0
8.33443e-15
-2.49024e-09
2.46538e-09
-2.05562e-09
2.03376e-09
-1.30297e-09
1.25723e-09
-1.03883e-08
1.03926e-08
-3.788e-11
3.07457e-11
-1.80024e-11
-9.46958e-10
1.13392e-09
-7.96105e-10
8.86408e-10
-4.3139e-11
8.33443e-15
-1.07582e-08
1.07499e-08
-8.44328e-09
2.27921e-10
9.08492e-09
-5.09734e-11
-0
-9.80841e-09
2.50032e-13
1.0536e-08
-2.5545e-11
-1.05174e-08
9.50434e-09
-2.50033e-14
-1.08348e-12
-2.35048e-09
-5.66451e-09
1.03858e-08
-1.22183e-11
-1.99618e-10
2.4399e-10
-8.33443e-15
-8.33443e-15
-1.02389e-08
2.11444e-10
9.84994e-09
-1.66689e-14
-2.50033e-14
-7.02092e-10
7.68493e-10
-0
-1.66689e-14
-0
-5.07817e-11
3.42628e-11
-9.35981e-10
9.56584e-10
-2.04298e-09
2.03876e-09
-1.00646e-08
6.94207e-09
-6.8191e-09
9.95529e-09
-0
-1.18221e-08
1.18377e-08
-8.78015e-10
8.264e-10
-1.17933e-09
1.27778e-09
-1.34434e-08
1.3464e-08
-1.05942e-08
9.55558e-09
-9.8631e-09
1.09016e-08
-1.0906e-08
1.08598e-08
-1.20187e-08
1.19882e-08
-3.62714e-11
2.73369e-11
-0
8.33443e-15
-0
-2.42221e-09
-4.59842e-09
1.46221e-09
6.45986e-09
-7.3398e-10
7.3453e-10
-3.00873e-12
-7.69384e-10
7.9603e-10
-1.03264e-11
-0
-0
-1.66689e-14
-2.02797e-09
2.05066e-09
-1.08811e-08
1.08811e-08
-1.20017e-08
1.19949e-08
-2.10861e-12
-1.08299e-08
1.08299e-08
-1.33277e-09
1.33578e-09
-3.71215e-11
-1.15166e-08
1.14195e-08
-2.58034e-11
1.70606e-11
-9.93086e-09
6.38857e-10
-2.33403e-09
1.16259e-08
-8.09165e-10
1.06098e-09
-9.22496e-10
9.6341e-10
-2.70619e-11
-6.14831e-11
5.47739e-11
1.41685e-13
-2.11897e-09
2.07676e-09
-2.0511e-11
-3.41712e-12
-2.04303e-09
2.01135e-09
-1.15354e-08
1.14562e-08
-1.12348e-11
-7.9843e-10
8.11798e-10
-1.66689e-14
-9.70128e-12
-1.97467e-09
-3.99546e-09
8.33441e-15
9.52296e-09
-0
1.70606e-11
-2.08059e-09
2.0044e-09
-7.3243e-11
9.3929e-12
-8.33443e-15
-1.07097e-11
-0
-1.04516e-08
8.2608e-09
-6.83423e-12
-1.02355e-08
8.01821e-09
-2.26363e-11
-8.33443e-15
-1.66689e-14
-3.84634e-11
5.80826e-11
-4.8523e-11
8.33443e-15
-8.33443e-15
-1.16159e-09
-7.17096e-09
9.42653e-09
-1.84143e-09
-4.96059e-09
8.77666e-09
-8.33443e-15
-3.39211e-12
-6.83423e-12
-1.36685e-11
2.0486e-11
-1.06283e-08
1.05908e-08
-6.8259e-12
-2.0511e-11
2.75453e-11
-9.06786e-12
-1.81317e-09
1.81751e-09
-8.33443e-15
-1.23893e-09
-1.5202e-11
1.79141e-09
-3.43378e-12
-1.27024e-08
1.27427e-08
-1.74919e-09
1.71924e-09
-2.39698e-11
1.02513e-11
-7.48165e-10
6.77647e-10
-4.64894e-11
-1.09304e-09
1.08154e-09
-6.41751e-12
-1.7492e-09
-6.81566e-09
1.03072e-08
8.33443e-15
-4.44225e-11
6.71755e-12
-1.21497e-08
1.21475e-08
-1.70856e-11
1.06681e-12
-1.16039e-08
9.73326e-09
-0
-1.20016e-12
-1.00612e-08
1.11774e-08
-1.57937e-11
-5.06067e-11
3.82217e-11
-1.18446e-08
1.18582e-08
3.43378e-12
3.41712e-12
1.36435e-11
-3.48363e-09
3.47894e-09
-9.3774e-10
-9.50272e-09
1.04403e-08
-1.16265e-11
4.61727e-12
-1.27955e-08
1.27909e-08
-1.12031e-08
9.28572e-09
-9.08415e-09
8.98499e-10
9.2881e-09
3.40878e-12
-2.11097e-09
-6.17081e-09
8.22664e-09
8.71781e-12
-2.64951e-11
-1.15508e-08
1.15439e-08
-2.04249e-09
3.90051e-12
2.02936e-09
-3.45731e-09
3.54978e-09
-0
-9.30906e-10
9.35556e-10
-3.83384e-12
-2.01693e-12
-8.33443e-15
8.19858e-11
3.41712e-12
-3.43962e-11
)
;

boundaryField
{
    sides
    {
        type            calculated;
        value           uniform -0;
    }
    empty1
    {
        type            empty;
        value           nonuniform List<scalar> 0();
    }
    empty2
    {
        type            empty;
        value           nonuniform List<scalar> 0();
    }
}


// ************************************************************************* //
