/*--------------------------------*- C++ -*----------------------------------*\
| =========                 |                                                 |
| \\      /  F ield         | OpenFOAM: The Open Source CFD Toolbox           |
|  \\    /   O peration     | Version:  2312                                  |
|   \\  /    A nd           | Website:  www.openfoam.com                      |
|    \\/     M anipulation  |                                                 |
\*---------------------------------------------------------------------------*/
FoamFile
{
    version     2.0;
    format      ascii;
    arch        "LSB;label=32;scalar=64";
    class       volScalarField;
    location    "5e-05";
    object      minKappa;
}
// * * * * * * * * * * * * * * * * * * * * * * * * * * * * * * * * * * * * * //

dimensions      [0 0 0 0 0 0 0];

internalField   nonuniform List<scalar> 
800
(
4.70291e-12
1.98017e-12
1.98017e-12
2.47522e-12
2.47522e-12
6.18804e-12
6.18804e-12
2.47522e-13
2.47522e-13
8.66326e-12
4.70291e-12
4.70291e-12
5.44548e-12
5.94052e-12
6.18804e-12
4.20787e-12
7.42565e-13
7.42565e-13
6.93061e-12
3.4653e-12
2.2277e-12
2.2277e-12
3.71283e-12
8.41574e-12
8.41574e-12
1.63364e-11
1.63364e-11
1.73265e-11
2.47522e-12
2.47522e-12
4.95043e-13
4.95043e-13
7.67317e-12
9.90087e-12
8.66326e-12
8.66326e-12
3.04452e-11
4.45539e-12
4.45539e-12
2.07918e-11
4.70291e-12
1.98017e-12
1.98017e-12
9.90087e-12
6.68309e-12
6.68309e-12
1.73265e-12
1.73265e-12
6.93061e-12
1.28711e-11
5.19796e-12
1.23761e-12
1.23761e-12
1.23761e-12
1.23761e-12
5.94052e-12
5.94052e-12
1.48513e-12
1.48513e-12
0
0
1.98017e-12
1.98017e-12
2.47522e-12
2.47522e-12
7.42565e-12
1.50988e-11
1.23761e-12
1.23761e-12
5.44548e-12
8.66326e-12
4.20787e-12
4.20787e-12
9.1583e-12
1.6584e-11
1.21286e-11
2.47522e-13
2.47522e-13
2.47522e-13
2.97026e-12
2.97026e-12
2.2277e-12
7.42565e-13
7.42565e-13
9.90087e-13
9.90087e-13
2.47522e-13
2.47522e-13
1.1881e-11
2.52472e-11
2.30195e-11
1.28711e-11
9.90087e-13
9.90087e-13
7.42565e-13
7.42565e-13
3.4653e-12
3.4653e-12
8.16822e-12
1.48513e-12
1.48513e-12
1.73265e-12
1.73265e-12
7.42565e-13
7.42565e-13
8.91078e-12
7.67317e-12
7.67317e-12
1.31187e-11
1.7079e-11
4.70291e-12
4.70291e-12
1.23761e-11
4.95043e-13
4.95043e-13
3.4653e-12
7.42565e-12
2.72274e-12
4.95043e-13
4.95043e-13
1.01484e-11
1.36137e-11
2.97026e-12
2.97026e-12
2.15344e-11
1.78216e-11
1.03959e-11
1.03959e-11
1.1881e-11
6.18804e-12
6.18804e-12
6.93061e-12
1.58414e-11
1.58414e-11
1.23761e-11
1.73265e-12
1.73265e-12
1.11385e-11
9.65335e-12
9.65335e-12
7.17813e-12
7.17813e-12
7.67317e-12
7.67317e-12
1.73265e-12
1.73265e-12
2.47522e-12
2.2277e-12
2.2277e-12
7.9207e-12
1.85641e-11
2.25245e-11
3.71283e-12
3.71283e-12
1.28711e-11
9.90087e-13
9.90087e-13
1.1386e-11
2.47522e-12
2.47522e-12
8.91078e-12
8.91078e-12
2.97026e-12
2.97026e-12
1.11385e-11
1.11385e-11
1.46038e-11
5.693e-12
4.70291e-12
4.70291e-12
1.28711e-11
1.36137e-11
2.82175e-11
2.82175e-11
4.75242e-11
1.6584e-11
8.66326e-12
6.68309e-12
9.90087e-13
9.90087e-13
9.90087e-13
6.18804e-12
3.96035e-12
3.96035e-12
2.62373e-11
3.96035e-12
3.96035e-12
8.91078e-12
4.45539e-12
4.45539e-12
7.42565e-12
3.4653e-12
3.4653e-12
4.45539e-12
8.91078e-12
5.693e-12
5.693e-12
1.01484e-11
8.16822e-12
8.16822e-12
5.44548e-12
5.44548e-12
4.95043e-13
0
0
9.90087e-13
7.9207e-12
7.9207e-12
1.48513e-12
1.48513e-12
1.33662e-11
7.42565e-12
7.42565e-12
1.36137e-11
6.43557e-12
2.2277e-12
1.73265e-12
1.73265e-12
3.4653e-12
3.4653e-12
1.01484e-11
1.01484e-11
5.693e-12
5.693e-12
1.16335e-11
2.64848e-11
4.0346e-11
3.39105e-11
2.59898e-11
1.80691e-11
8.91078e-12
1.98017e-12
1.98017e-12
2.72274e-12
4.95043e-12
0
0
2.2277e-12
4.95043e-12
2.47522e-13
2.47522e-13
3.21778e-12
1.03959e-11
1.28711e-11
1.98017e-12
1.98017e-12
2.97026e-12
1.1881e-11
3.21778e-12
2.47522e-13
2.47522e-13
8.16822e-12
5.693e-12
3.21778e-12
9.90087e-13
9.90087e-13
7.42565e-13
4.95043e-13
4.95043e-13
4.70291e-12
2.54947e-11
2.35146e-11
1.1881e-11
1.1881e-11
5.19796e-12
5.19796e-12
4.20787e-12
4.95043e-13
4.95043e-13
2.72274e-12
7.67317e-12
7.67317e-12
5.19796e-12
5.19796e-12
6.43557e-12
5.94052e-12
5.94052e-12
6.68309e-12
5.19796e-12
2.47522e-13
2.47522e-13
4.95043e-13
1.6584e-11
1.63364e-11
2.47522e-12
2.47522e-12
2.00493e-11
1.21286e-11
0
0
2.97026e-12
5.19796e-12
7.9207e-12
7.42565e-13
7.42565e-13
6.43557e-12
1.98017e-12
1.98017e-12
2.47522e-13
2.47522e-13
4.95043e-12
4.95043e-13
0
0
0
3.71283e-12
7.42565e-13
7.42565e-13
5.44548e-12
9.65335e-12
1.06434e-11
1.06434e-11
7.67317e-12
7.67317e-12
4.20787e-12
4.20787e-12
4.20787e-12
4.20787e-12
3.4653e-12
3.4653e-12
1.48513e-12
1.48513e-12
7.42565e-13
0
0
7.42565e-12
2.47522e-13
2.47522e-13
7.42565e-12
7.42565e-12
9.90087e-13
9.90087e-13
9.90087e-13
9.90087e-13
5.94052e-12
4.95043e-12
4.95043e-12
9.90087e-13
0
0
8.41574e-12
1.0891e-11
6.93061e-12
6.93061e-12
4.05936e-11
4.96034e-10
4.32495e-09
3.55382e-08
2.72429e-07
1.85356e-06
1.11431e-05
6.24851e-05
0.000336936
0.00175312
0.00878348
0.0419032
0.180834
0.633372
1
1
1
1
1
1
1
1
1
1
1
1
1
1
1
1
1
1
1
1
1
1
1
1
1
1
1
1
1
1
1
1
1
1
1
1
1
1
1
1
1
0.10402
0.10402
0.140275
0.136089
0.127154
0.117864
0.105508
0.0924872
0.0807159
0.0712185
0.0649672
0.0602572
0.0511858
0.041121
0.0269272
0.0106396
0.00375429
0.00116005
0.000299017
4.9638e-05
7.07654e-06
7.07654e-06
1.50876e-05
7.30545e-06
3.26737e-06
1.57185e-06
7.91728e-07
4.17532e-07
2.32217e-07
1.43538e-07
9.54027e-08
7.38358e-08
6.52847e-08
6.15425e-08
5.40752e-08
4.66522e-08
4.58391e-08
4.21437e-08
3.94926e-08
3.94926e-08
4.01143e-08
3.7584e-08
3.7584e-08
3.85747e-08
3.94339e-08
3.94974e-08
3.8729e-08
3.70136e-08
3.56756e-08
3.06257e-08
2.76644e-08
2.23261e-08
1.89661e-08
1.84912e-08
1.57597e-08
1.2503e-08
1.0227e-08
8.46631e-09
6.48534e-09
5.01876e-09
2.00586e-09
7.98774e-10
7.98774e-10
3.80605e-09
9.34148e-09
1.04747e-08
1.08604e-08
1.15547e-08
1.56691e-08
1.88859e-08
1.6968e-08
1.57052e-08
1.48569e-08
1.28532e-08
1.28532e-08
1.22121e-08
1.22121e-08
1.50847e-08
1.58401e-08
1.58401e-08
1.57242e-08
1.57242e-08
1.44068e-08
1.34155e-08
1.34155e-08
1.60272e-08
1.74539e-08
1.80017e-08
1.93528e-08
2.08361e-08
2.37787e-08
2.37787e-08
2.41166e-08
2.69704e-08
2.51429e-08
2.51429e-08
2.44847e-08
2.33006e-08
2.10279e-08
2.10279e-08
2.37887e-08
2.11476e-08
1.85774e-08
1.5856e-08
1.33644e-08
1.08081e-08
1.08081e-08
1.38889e-08
1.38889e-08
1.68333e-08
1.68333e-08
2.19897e-08
2.0832e-08
1.96262e-08
1.77587e-08
1.54184e-08
1.29002e-08
1.17637e-08
1.17637e-08
1.26981e-08
1.00877e-08
1.00877e-08
1.18825e-08
1.64799e-08
1.61274e-08
1.61274e-08
2.07169e-08
1.9139e-08
1.77649e-08
1.68266e-08
1.62262e-08
1.49275e-08
1.33953e-08
1.33953e-08
1.61591e-08
1.54154e-08
1.37749e-08
1.29741e-08
1.05325e-08
8.16605e-09
5.72145e-09
3.62275e-09
1.85953e-09
1.85953e-09
1.09672e-09
3.89796e-10
3.89796e-10
3.18947e-10
3.18947e-10
2.95717e-10
2.95717e-10
1.13954e-09
1.22437e-09
2.08828e-09
3.65896e-09
5.57074e-09
7.96268e-09
9.46556e-09
1.1782e-08
1.31142e-08
1.12239e-08
1.12239e-08
4.99545e-09
4.20815e-09
4.20815e-09
6.18251e-09
7.29544e-09
5.56945e-09
3.03405e-09
3.03405e-09
3.38557e-09
1.54456e-09
1.54456e-09
1.55596e-09
2.40789e-09
3.65772e-09
2.92525e-09
2.92525e-09
4.34794e-09
5.05694e-09
4.71732e-09
4.28809e-09
4.20369e-09
1.88608e-09
1.88608e-09
3.05703e-09
3.8949e-09
4.82405e-09
6.3023e-09
7.8614e-09
9.58899e-09
1.14162e-08
1.29372e-08
1.35748e-08
1.38725e-08
1.34775e-08
1.34775e-08
1.49928e-08
1.63331e-08
1.52377e-08
1.06785e-08
7.84273e-09
7.33983e-09
7.33983e-09
2.35747e-09
2.35747e-09
1.66616e-09
2.7695e-11
2.7695e-11
5.34555e-10
5.34555e-10
3.66492e-09
3.66492e-09
4.09622e-09
4.09622e-09
6.13424e-09
6.13424e-09
4.87465e-09
4.87465e-09
6.04833e-09
4.70145e-09
4.40358e-09
4.40358e-09
5.10249e-09
4.622e-09
4.622e-09
4.81712e-09
4.89476e-09
8.60388e-09
7.99583e-09
7.99583e-09
8.55502e-09
9.47325e-09
1.02055e-08
9.21151e-09
7.63472e-09
6.17027e-09
5.08703e-09
4.091e-09
3.10606e-09
3.10606e-09
4.19336e-09
4.19336e-09
6.08372e-09
4.41847e-09
4.41847e-09
4.00246e-09
4.00246e-09
2.87829e-09
2.13582e-09
2.13582e-09
6.11381e-09
4.81661e-09
3.32266e-09
3.32266e-09
6.50844e-09
8.81738e-09
1.09978e-08
1.57651e-08
1.90073e-08
1.94751e-08
1.92012e-08
1.87503e-08
1.72751e-08
1.63257e-08
1.49514e-08
1.29944e-08
1.17532e-08
1.0444e-08
9.07436e-09
7.23335e-09
7.08653e-09
7.08653e-09
9.49813e-09
7.16324e-09
5.78064e-09
2.76536e-09
1.4079e-09
1.4079e-09
1.10201e-09
1.10201e-09
4.80746e-09
8.34372e-09
9.56559e-09
9.81411e-09
9.81411e-09
9.36181e-09
9.36181e-09
1.02714e-08
1.13644e-08
1.06458e-08
9.5184e-09
9.5184e-09
8.14819e-09
4.53132e-09
4.53132e-09
5.82347e-09
4.50618e-09
3.08348e-09
1.38739e-09
3.03405e-11
3.03405e-11
3.20022e-10
3.20022e-10
4.46344e-10
9.38985e-10
9.38985e-10
1.10391e-09
1.10391e-09
1.5181e-09
3.80058e-09
2.35234e-09
8.16216e-10
1.26487e-10
1.26487e-10
5.46376e-10
7.2842e-10
7.2842e-10
3.22857e-09
5.95913e-09
8.75773e-09
1.03921e-08
1.19128e-08
1.38838e-08
1.55506e-08
1.70074e-08
1.84193e-08
1.92309e-08
1.99953e-08
1.30099e-08
1.30099e-08
1.32078e-08
1.38271e-08
1.43834e-08
1.46343e-08
1.36199e-08
1.36199e-08
1.41012e-08
1.57898e-08
1.59179e-08
1.78251e-08
1.83776e-08
1.46915e-08
1.34007e-08
1.27074e-08
1.27074e-08
1.27701e-08
9.24542e-09
9.24542e-09
9.4167e-09
9.77236e-09
3.53736e-09
3.49742e-09
3.49742e-09
3.27611e-09
1.01248e-09
1.06646e-11
1.06646e-11
1.80861e-09
4.51147e-09
5.66417e-09
5.66417e-09
7.37844e-09
9.50839e-09
1.02267e-08
1.02267e-08
1.08417e-08
1.14136e-08
8.55032e-09
7.99236e-09
6.54197e-09
6.09745e-09
5.5858e-09
5.5858e-09
2.08192e-09
2.08192e-09
2.28051e-09
2.28051e-09
3.90483e-09
3.13606e-09
3.13606e-09
3.54306e-09
3.97436e-09
3.9226e-09
3.9226e-09
4.80281e-09
8.85422e-09
9.52914e-09
9.54377e-09
9.08222e-09
8.43093e-09
7.94614e-09
7.46417e-09
7.46301e-09
6.84297e-09
5.88531e-09
5.34033e-09
3.93252e-09
2.55852e-09
9.02856e-10
9.02856e-10
)
;

boundaryField
{
    sides
    {
        type            calculated;
        value           uniform 0;
    }
    empty1
    {
        type            empty;
    }
    empty2
    {
        type            empty;
    }
}


// ************************************************************************* //
