/*--------------------------------*- C++ -*----------------------------------*\
| =========                 |                                                 |
| \\      /  F ield         | OpenFOAM: The Open Source CFD Toolbox           |
|  \\    /   O peration     | Version:  2312                                  |
|   \\  /    A nd           | Website:  www.openfoam.com                      |
|    \\/     M anipulation  |                                                 |
\*---------------------------------------------------------------------------*/
FoamFile
{
    version     2.0;
    format      ascii;
    arch        "LSB;label=32;scalar=64";
    class       surfaceScalarField;
    location    "5e-05";
    object      phi;
}
// * * * * * * * * * * * * * * * * * * * * * * * * * * * * * * * * * * * * * //

dimensions      [1 0 -1 0 0 0 0];

oriented        oriented;

internalField   nonuniform List<scalar> 
799
(
5.27356e-16
2.22045e-16
-4.996e-16
2.77556e-16
1.13798e-15
-6.93889e-16
-2.35922e-15
-2.77556e-17
9.71445e-16
1.05471e-15
5.27356e-16
6.10623e-16
-6.66134e-16
-2.08167e-15
-6.93889e-16
-4.71845e-16
-8.32667e-17
7.77156e-16
-9.15934e-16
3.88578e-16
-2.498e-16
-4.16334e-16
3.91354e-15
9.4369e-16
-2.498e-15
-1.83187e-15
2.13718e-15
1.94289e-15
-2.77556e-16
-3.33067e-16
5.55112e-17
-8.60423e-16
-1.44329e-15
1.11022e-15
9.71445e-16
-3.85803e-15
-3.41394e-15
-4.996e-16
3.16414e-15
2.33147e-15
5.27356e-16
2.22045e-16
-1.69309e-15
-1.11022e-15
7.49401e-16
1.13798e-15
-1.94289e-16
-7.77156e-16
1.66533e-15
1.44329e-15
-5.82867e-16
-1.38778e-16
-5.82867e-16
-1.38778e-16
1.36002e-15
-6.66134e-16
-1.4988e-15
-1.66533e-16
3.88578e-16
0
-4.16334e-16
2.22045e-16
1.02696e-15
2.77556e-16
8.32667e-16
1.69309e-15
-1.80411e-15
1.38778e-16
6.10623e-16
-2.10942e-15
-9.71445e-16
4.71845e-16
-1.02696e-15
-1.85962e-15
3.71925e-15
1.36002e-15
2.77556e-17
2.77556e-17
-1.33227e-15
3.33067e-16
5.55112e-16
2.498e-16
8.32667e-17
-1.36002e-15
1.11022e-16
3.05311e-16
-2.77556e-17
-1.33227e-15
-3.33067e-15
2.83107e-15
2.58127e-15
-1.44329e-15
1.11022e-16
3.05311e-16
-8.32667e-17
6.93889e-16
3.88578e-16
-9.15934e-16
-2.05391e-15
-1.66533e-16
9.71445e-16
1.94289e-16
-4.44089e-16
-8.32667e-17
9.99201e-16
1.13798e-15
8.60423e-16
-1.47105e-15
-1.91513e-15
-2.63678e-15
-5.27356e-16
3.60822e-15
1.38778e-15
5.55112e-17
-3.88578e-16
-8.32667e-16
1.05471e-15
3.05311e-16
5.55112e-17
-1.13798e-15
-3.08087e-15
1.52656e-15
3.33067e-16
-2.41474e-15
2.72005e-15
1.9984e-15
1.16573e-15
-1.33227e-15
-3.94129e-15
-6.93889e-16
7.77156e-16
2.91434e-15
-1.77636e-15
-1.94289e-15
1.38778e-15
-1.94289e-16
2.35922e-15
1.249e-15
-1.08247e-15
1.44329e-15
8.04912e-16
-1.66533e-15
-8.60423e-16
1.83187e-15
1.94289e-16
-2.30371e-15
-2.77556e-16
2.498e-16
8.88178e-16
2.08167e-15
-2.52576e-15
-4.91274e-15
4.16334e-16
5.57887e-15
1.44329e-15
-1.11022e-16
-1.27676e-15
-2.38698e-15
-2.77556e-16
-2.9976e-15
-9.99201e-16
-1.88738e-15
3.33067e-16
4.88498e-15
1.249e-15
-1.63758e-15
2.83107e-15
6.38378e-16
-5.27356e-16
1.44329e-15
-1.52656e-15
-7.41074e-15
-3.16414e-15
5.32907e-15
5.91194e-15
1.85962e-15
-9.71445e-16
-7.49401e-16
1.11022e-16
-1.11022e-16
6.93889e-16
8.04912e-16
-4.44089e-16
-2.94209e-15
-3.77476e-15
4.44089e-16
2.60902e-15
9.99201e-16
4.996e-16
-8.32667e-16
-1.02696e-15
3.88578e-16
-4.996e-16
9.99201e-16
1.83187e-15
-6.38378e-16
-1.13798e-15
-1.22125e-15
-9.15934e-16
3.80251e-15
6.10623e-16
-1.4988e-15
-5.55112e-17
0
1.11022e-16
1.08247e-15
8.88178e-16
9.15934e-16
-1.66533e-16
-2.10942e-15
-1.4988e-15
-8.32667e-16
1.52656e-15
2.44249e-15
-7.21645e-16
2.498e-16
1.94289e-16
-1.52656e-15
-3.88578e-16
-1.19349e-15
-1.13798e-15
1.19349e-15
-6.38378e-16
-1.30451e-15
2.96985e-15
4.57967e-15
-4.52416e-15
-3.80251e-15
2.91434e-15
2.02616e-15
9.99201e-16
-2.22045e-16
3.05311e-16
-5.55112e-16
-2.44249e-15
0
2.498e-16
5.55112e-16
1.80411e-15
2.77556e-17
3.60822e-16
1.16573e-15
-1.44329e-15
-4.02456e-15
-2.22045e-16
-3.33067e-16
1.7486e-15
1.33227e-15
3.60822e-16
-2.77556e-17
9.4369e-16
9.15934e-16
-6.38378e-16
3.60822e-16
1.11022e-16
-3.33067e-16
-8.32667e-17
-5.55112e-17
5.27356e-16
-2.85882e-15
-2.96985e-15
2.63678e-15
1.33227e-15
1.33227e-15
5.82867e-16
-7.49401e-16
4.71845e-16
-5.55112e-17
3.05311e-16
8.88178e-16
-8.60423e-16
-1.249e-15
5.82867e-16
7.21645e-16
-7.21645e-16
-6.66134e-16
-7.49401e-16
8.88178e-16
5.82867e-16
-2.77556e-17
5.55112e-17
-1.85962e-15
-2.38698e-15
1.83187e-15
-2.77556e-16
-2.2482e-15
3.05311e-15
1.36002e-15
0
3.33067e-16
5.82867e-16
8.88178e-16
-1.249e-15
8.32667e-17
7.21645e-16
-8.88178e-16
-2.22045e-16
2.498e-16
-2.77556e-17
5.82867e-16
5.55112e-16
5.55112e-17
0
0
-4.16334e-16
-7.21645e-16
8.32667e-17
-6.10623e-16
-1.08247e-15
1.249e-15
1.19349e-15
-2.63678e-15
-8.60423e-16
1.69309e-15
4.71845e-16
6.93889e-16
4.71845e-16
-8.04912e-16
3.88578e-16
9.71445e-16
1.66533e-16
-3.88578e-16
-8.32667e-17
0
-1.7486e-15
-8.32667e-16
2.77556e-17
1.44329e-15
8.32667e-16
-1.41553e-15
1.11022e-16
2.77556e-16
-1.11022e-16
8.60423e-16
-6.66134e-16
-5.55112e-16
1.47105e-15
-1.11022e-16
0
9.4369e-16
-1.22125e-15
-1.38778e-15
7.77156e-16
4.55191e-15
5.56222e-14
4.84973e-13
3.98503e-12
3.05485e-11
2.07847e-10
1.24952e-09
7.0067e-09
3.77819e-08
1.96584e-07
9.84924e-07
4.69874e-06
2.02771e-05
7.10161e-05
0.000190014
0.000422897
0.000892398
0.00179096
0.00340485
0.00610897
0.0103179
0.0163856
0.0244777
0.0344746
0.0459606
0.0583511
0.070648
0.0824246
0.0932476
0.102735
0.111168
0.11804
0.123987
0.128384
0.131756
0.133721
0.134697
0.134735
0.134385
0.133555
0.132811
0.13092
0.128779
0.125301
0.12047
0.115348
0.108432
0.101808
0.0950964
0.0889886
0.0840559
0.080268
0.0774019
0.0760235
0.0737292
0.062308
0.0101107
0.0244157
0.0239549
0.0234116
0.0218713
0.0202704
0.0181451
0.0159043
0.0138797
0.0122459
0.0111709
0.0103605
0.0088007
0.0070698
0.00462922
0.00182898
0.000645354
0.000199408
5.13997e-05
8.53254e-06
-1.21642e-06
-2.90118e-06
-2.59349e-06
-1.25577e-06
-5.61643e-07
-2.70193e-07
-1.36094e-07
-7.17717e-08
-3.99169e-08
-2.46735e-08
-1.63993e-08
-1.2692e-08
-1.12221e-08
-1.05788e-08
-9.29522e-09
-8.01928e-09
-7.87952e-09
-7.24427e-09
-6.78858e-09
-6.89546e-09
-7.05218e-09
-6.46048e-09
-6.6308e-09
-6.77851e-09
-6.78942e-09
-6.85753e-09
-6.65729e-09
-6.36246e-09
-6.13247e-09
-5.26438e-09
-4.75536e-09
-3.83773e-09
-3.26018e-09
-3.17856e-09
-2.70902e-09
-2.14921e-09
-1.75797e-09
-1.45532e-09
-1.1148e-09
-8.62698e-10
-3.44798e-10
-1.37305e-10
6.54239e-10
1.60576e-09
1.80056e-09
1.86685e-09
1.98618e-09
2.69344e-09
3.49348e-09
3.2464e-09
2.91672e-09
2.69965e-09
2.55383e-09
2.2094e-09
2.30953e-09
2.0992e-09
2.59297e-09
3.05326e-09
2.72283e-09
3.22491e-09
2.70292e-09
2.72885e-09
2.47647e-09
2.30605e-09
2.755e-09
3.00024e-09
3.09441e-09
3.32665e-09
3.5816e-09
4.10407e-09
4.08744e-09
4.14552e-09
4.67456e-09
4.63608e-09
4.32195e-09
4.52238e-09
4.2088e-09
4.00526e-09
3.61459e-09
4.37011e-09
4.08916e-09
3.63517e-09
3.19336e-09
2.72557e-09
2.29728e-09
1.85786e-09
2.72385e-09
2.38744e-09
3.2376e-09
2.89356e-09
4.06719e-09
3.77993e-09
3.58092e-09
3.37366e-09
3.05263e-09
2.65035e-09
2.21749e-09
2.02212e-09
2.60169e-09
2.18274e-09
1.73402e-09
2.04254e-09
2.9214e-09
2.83282e-09
2.77223e-09
3.56113e-09
3.59374e-09
3.2899e-09
3.0537e-09
2.89242e-09
2.78921e-09
2.56597e-09
2.30258e-09
2.77767e-09
2.97919e-09
2.64984e-09
2.36784e-09
2.23018e-09
1.81049e-09
1.40371e-09
9.83491e-10
6.22734e-10
3.19645e-10
4.11362e-10
1.88521e-10
-6.70042e-11
-2.15223e-10
-5.48255e-11
-2.69679e-10
5.08322e-11
-1.95882e-10
-2.10463e-10
-3.58966e-10
-6.28958e-10
-9.57584e-10
-1.36875e-09
-1.62709e-09
-2.02527e-09
-2.25427e-09
-2.41909e-09
-1.92934e-09
-1.99645e-09
-8.58691e-10
-7.23361e-10
-1.06274e-09
-1.26283e-09
-1.25405e-09
-9.57357e-10
-5.21538e-10
-5.81963e-10
-7.58618e-10
-2.65501e-10
-2.67462e-10
-4.13905e-10
-6.28745e-10
-9.41228e-10
-5.02837e-10
-7.47391e-10
-8.69264e-10
-8.88889e-10
-8.10886e-10
-7.37103e-10
-7.22594e-10
-3.24206e-10
-5.25489e-10
-6.69516e-10
-8.29232e-10
-1.08334e-09
-1.35134e-09
-1.6483e-09
-1.96239e-09
-2.22384e-09
-2.33345e-09
-2.38462e-09
-2.39125e-09
-2.31672e-09
-2.5772e-09
-2.80758e-09
-2.85783e-09
-2.61929e-09
-1.83557e-09
-1.34813e-09
-1.26168e-09
-1.34146e-09
-4.05237e-10
-4.31086e-10
-2.86406e-10
4.76064e-12
1.81458e-10
9.18874e-11
1.05341e-09
6.29981e-10
1.21403e-09
7.04119e-10
1.5643e-09
1.05445e-09
1.22567e-09
8.37929e-10
1.33174e-09
1.03968e-09
8.08157e-10
7.56955e-10
8.77094e-10
9.46784e-10
7.945e-10
8.28038e-10
8.41382e-10
1.56324e-09
1.47897e-09
1.37445e-09
1.47057e-09
1.62841e-09
1.77204e-09
1.75427e-09
1.58342e-09
1.31237e-09
1.06064e-09
8.74437e-10
7.03224e-10
5.33916e-10
1.14044e-09
7.20817e-10
1.42374e-09
1.04576e-09
7.59513e-10
1.00437e-09
6.88004e-10
7.61275e-10
4.94765e-10
3.67137e-10
1.17896e-09
1.05094e-09
8.27953e-10
5.71148e-10
1.11876e-09
1.51566e-09
1.89047e-09
2.70995e-09
3.26726e-09
3.34768e-09
3.38594e-09
3.3006e-09
3.22309e-09
2.96951e-09
2.80632e-09
2.57008e-09
2.23368e-09
2.02033e-09
1.79527e-09
1.55984e-09
1.24338e-09
1.21814e-09
1.72787e-09
1.63269e-09
1.23133e-09
9.93666e-10
4.75353e-10
2.42011e-10
2.42935e-10
1.89431e-10
8.26375e-10
1.43424e-09
1.64428e-09
1.76024e-09
1.687e-09
1.69157e-09
1.60925e-09
1.7656e-09
1.95348e-09
1.99105e-09
1.82996e-09
1.63617e-09
1.85821e-09
1.40064e-09
7.78911e-10
1.00587e-09
1.00103e-09
7.74591e-10
5.30036e-10
2.38487e-10
5.21538e-12
-1.18064e-10
-5.50102e-11
7.67244e-11
1.73046e-10
1.61407e-10
3.21251e-10
-1.89758e-10
-2.60954e-10
6.53301e-10
7.25208e-10
4.04356e-10
1.40304e-10
-2.17426e-11
-9.39195e-11
-1.96096e-10
-1.25212e-10
-5.54977e-10
-1.02435e-09
-1.50541e-09
-1.78636e-09
-2.04776e-09
-2.38656e-09
-2.67308e-09
-2.9235e-09
-3.16619e-09
-3.3057e-09
-3.46903e-09
-3.43709e-09
-2.23633e-09
-2.27035e-09
-2.37681e-09
-2.47243e-09
-2.51907e-09
-2.51556e-09
-2.3412e-09
-2.42393e-09
-2.71419e-09
-2.73621e-09
-3.06406e-09
-3.22325e-09
-3.15902e-09
-2.5254e-09
-2.30352e-09
-2.18435e-09
-2.19512e-09
-2.23692e-09
-1.58924e-09
-1.61869e-09
-1.67982e-09
-1.70031e-09
-6.08054e-10
-6.0119e-10
-7.22764e-10
-5.63148e-10
1.7404e-10
1.8332e-12
-3.10891e-10
-7.75501e-10
-1.13634e-09
-9.73642e-10
-1.26832e-09
-1.63445e-09
-1.8011e-09
-1.75793e-09
-1.86364e-09
-1.96194e-09
-1.96282e-09
-1.46976e-09
-1.37385e-09
-1.12453e-09
-1.04812e-09
-9.60171e-10
-1.13914e-09
-3.57872e-10
-4.52218e-10
3.92006e-10
7.09406e-10
6.71221e-10
5.39075e-10
6.09035e-10
6.83173e-10
6.85873e-10
6.74277e-10
8.2558e-10
1.522e-09
1.63801e-09
1.6566e-09
1.64053e-09
1.56119e-09
1.44924e-09
1.3659e-09
1.28306e-09
1.28286e-09
1.17628e-09
1.01166e-09
9.17979e-10
6.75982e-10
4.39798e-10
1.55197e-10
)
;

boundaryField
{
    sides
    {
        type            calculated;
        value           uniform 0;
    }
    empty1
    {
        type            empty;
        value           nonuniform List<scalar> 0();
    }
    empty2
    {
        type            empty;
        value           nonuniform List<scalar> 0();
    }
}


// ************************************************************************* //
