/*--------------------------------*- C++ -*----------------------------------*\
| =========                 |                                                 |
| \\      /  F ield         | OpenFOAM: The Open Source CFD Toolbox           |
|  \\    /   O peration     | Version:  2312                                  |
|   \\  /    A nd           | Website:  www.openfoam.com                      |
|    \\/     M anipulation  |                                                 |
\*---------------------------------------------------------------------------*/
FoamFile
{
    version     2.0;
    format      ascii;
    arch        "LSB;label=32;scalar=64";
    class       volVectorField;
    location    "5e-05";
    object      U;
}
// * * * * * * * * * * * * * * * * * * * * * * * * * * * * * * * * * * * * * //

dimensions      [0 1 -1 0 0 0 0];

internalField   nonuniform List<vector> 
800
(
(2.39104e-13 0 0)
(4.78228e-13 0 0)
(-2.52706e-13 0 0)
(-4.64626e-13 0 0)
(9.56455e-13 0 0)
(8.55239e-13 0 0)
(-2.02691e-12 0 0)
(-9.80138e-13 0 0)
(4.78113e-13 0 0)
(9.56417e-13 0 0)
(4.78189e-13 0 0)
(4.78208e-13 0 0)
(4.78247e-13 0 0)
(-1.56624e-12 0 0)
(-1.48375e-12 0 0)
(2.65255e-13 0 0)
(-1.04095e-12 0 0)
(9.56379e-13 0 0)
(-2.08037e-13 0 0)
(-7.48207e-13 0 0)
(1.19527e-12 0 0)
(-1.61777e-12 0 0)
(1.85812e-12 0 0)
(3.3461e-12 0 0)
(-1.85288e-12 0 0)
(-2.04066e-12 0 0)
(6.79684e-14 0 0)
(2.39116e-12 0 0)
(4.78228e-13 0 0)
(-4.78228e-13 0 0)
(-1.91299e-17 0 0)
(-1.91299e-17 0 0)
(-1.37515e-12 0 0)
(-5.37741e-13 0 0)
(1.91299e-12 0 0)
(-1.45867e-12 0 0)
(-3.57707e-12 0 0)
(-1.17961e-12 0 0)
(4.78017e-13 0 0)
(3.82479e-12 0 0)
(1.91301e-17 0 0)
(9.56015e-13 0 0)
(-9.56359e-13 0 0)
(-1.30969e-12 0 0)
(-1.2488e-13 0 0)
(9.56359e-13 0 0)
(4.78189e-13 0 0)
(-5.74967e-13 0 0)
(-3.81507e-13 0 0)
(2.86929e-12 0 0)
(-5.2039e-13 0 0)
(-4.36046e-13 0 0)
(1.04086e-13 0 0)
(-1.06052e-12 0 0)
(9.56493e-13 0 0)
(9.56398e-13 0 0)
(-2.09321e-12 0 0)
(-2.97814e-13 0 0)
(3.82597e-17 0 0)
(4.78132e-13 0 0)
(-4.78228e-13 0 0)
(-1.91299e-17 0 0)
(4.78228e-13 0 0)
(9.56455e-13 0 0)
(-4.78189e-13 0 0)
(1.91266e-12 0 0)
(-1.61839e-13 0 0)
(-1.7508e-12 0 0)
(1.91259e-12 0 0)
(-1.33966e-12 0 0)
(-1.62573e-12 0 0)
(9.63189e-14 0 0)
(4.78189e-13 0 0)
(-2.39032e-12 0 0)
(9.56532e-13 0 0)
(3.34667e-12 0 0)
(-9.56474e-13 0 0)
(9.56474e-13 0 0)
(-9.56455e-13 0 0)
(-9.56493e-13 0 0)
(1.43464e-12 0 0)
(-4.78189e-13 0 0)
(9.56436e-13 0 0)
(-9.5634e-13 0 0)
(-9.56436e-13 0 0)
(9.56379e-13 0 0)
(-4.78228e-13 0 0)
(4.78208e-13 0 0)
(-2.86137e-12 0 0)
(-1.44163e-12 0 0)
(5.25939e-12 0 0)
(-1.03563e-12 0 0)
(-8.772e-13 0 0)
(9.56398e-13 0 0)
(-4.78189e-13 0 0)
(4.78323e-13 0 0)
(4.78189e-13 0 0)
(3.47016e-14 0 0)
(-1.46927e-12 0 0)
(-1.37804e-12 0 0)
(8.99735e-13 0 0)
(4.78208e-13 0 0)
(-1.65971e-13 0 0)
(-3.12257e-13 0 0)
(4.78189e-13 0 0)
(9.56436e-13 0 0)
(9.56455e-13 0 0)
(-3.45001e-23 0 0)
(-1.91278e-12 0 0)
(-1.30791e-12 0 0)
(-2.9947e-12 0 0)
(2.39049e-12 0 0)
(2.86849e-12 0 0)
(-4.78285e-13 0 0)
(4.78228e-13 0 0)
(-1.16457e-12 0 0)
(2.08248e-13 0 0)
(9.56359e-13 0 0)
(-4.78247e-13 0 0)
(6.00008e-13 0 0)
(-2.63273e-12 0 0)
(-1.31407e-12 0 0)
(2.86879e-12 0 0)
(-2.38997e-12 0 0)
(3.48663e-23 0 0)
(2.86797e-12 0 0)
(4.78228e-13 0 0)
(1.30693e-12 0 0)
(-3.58698e-12 0 0)
(-1.54384e-12 0 0)
(-2.29558e-16 0 0)
(1.43474e-12 0 0)
(2.31931e-12 0 0)
(-5.08376e-12 0 0)
(1.80684e-12 0 0)
(1.14779e-16 0 0)
(2.39142e-13 0 0)
(3.10769e-12 0 0)
(-1.06429e-12 0 0)
(-3.70182e-13 0 0)
(2.391e-12 0 0)
(-1.116e-12 0 0)
(-1.27518e-12 0 0)
(4.78189e-13 0 0)
(1.91297e-12 0 0)
(-1.74954e-12 0 0)
(-1.57661e-12 0 0)
(9.35087e-13 0 0)
(-4.7817e-13 0 0)
(1.91283e-12 0 0)
(5.66455e-13 0 0)
(-4.02613e-12 0 0)
(-3.71144e-12 0 0)
(4.3029e-12 0 0)
(3.82465e-12 0 0)
(-9.56398e-13 0 0)
(8.24268e-13 0 0)
(-3.10847e-12 0 0)
(-1.06419e-13 0 0)
(-1.43233e-12 0 0)
(-2.22486e-12 0 0)
(-3.86997e-14 0 0)
(-2.51715e-12 0 0)
(3.34497e-12 0 0)
(4.30221e-12 0 0)
(-2.39037e-12 0 0)
(9.56359e-13 0 0)
(2.39043e-12 0 0)
(-9.56493e-13 0 0)
(4.78189e-13 0 0)
(1.43472e-12 0 0)
(-4.77887e-12 0 0)
(-5.84488e-12 0 0)
(2.01923e-12 0 0)
(5.25714e-12 0 0)
(3.34736e-12 0 0)
(1.38959e-13 0 0)
(-1.09538e-12 0 0)
(-1.81121e-23 0 0)
(-1.91299e-17 0 0)
(3.82598e-17 0 0)
(9.56417e-13 0 0)
(8.622e-24 0 0)
(-8.53364e-13 0 0)
(-3.45017e-12 0 0)
(-1.91247e-12 0 0)
(1.91268e-12 0 0)
(1.91234e-12 0 0)
(1.91299e-17 0 0)
(6.14356e-13 0 0)
(-1.92634e-12 0 0)
(3.55567e-13 0 0)
(-9.64528e-14 0 0)
(-3.81641e-13 0 0)
(1.91264e-12 0 0)
(4.39451e-13 0 0)
(-9.17679e-13 0 0)
(-8.16654e-13 0 0)
(-1.35047e-12 0 0)
(1.2114e-12 0 0)
(3.34679e-12 0 0)
(-2.29857e-12 0 0)
(-9.24929e-14 0 0)
(-1.91299e-17 0 0)
(-1.91299e-17 0 0)
(4.78266e-13 0 0)
(9.56417e-13 0 0)
(4.78208e-13 0 0)
(9.56436e-13 0 0)
(-1.43457e-12 0 0)
(-1.59593e-12 0 0)
(-7.9498e-13 0 0)
(-4.78113e-13 0 0)
(2.86893e-12 0 0)
(3.87418e-13 0 0)
(-8.65607e-13 0 0)
(1.19554e-12 0 0)
(-1.02375e-12 0 0)
(-1.12822e-12 0 0)
(3.68231e-13 0 0)
(-2.34731e-12 0 0)
(7.83789e-13 0 0)
(7.28064e-13 0 0)
(-1.44538e-12 0 0)
(7.65197e-17 0 0)
(4.30332e-12 0 0)
(1.4342e-12 0 0)
(-7.17175e-12 0 0)
(1.43447e-12 0 0)
(2.39047e-12 0 0)
(9.56455e-13 0 0)
(4.78189e-13 0 0)
(-4.78266e-13 0 0)
(9.56493e-13 0 0)
(-1.9127e-12 0 0)
(-1.43464e-12 0 0)
(9.56302e-13 0 0)
(-4.78094e-13 0 0)
(1.43468e-12 0 0)
(9.56302e-13 0 0)
(-4.78266e-13 0 0)
(9.56417e-13 0 0)
(9.06584e-13 0 0)
(-3.41246e-12 0 0)
(-1.79744e-12 0 0)
(-1.33909e-16 0 0)
(5.73897e-17 0 0)
(2.39058e-12 0 0)
(-5.73895e-17 0 0)
(4.78208e-13 0 0)
(-4.78208e-13 0 0)
(1.91285e-12 0 0)
(-5.20371e-13 0 0)
(-4.36065e-13 0 0)
(9.56455e-13 0 0)
(-7.73134e-13 0 0)
(2.94906e-13 0 0)
(-4.78208e-13 0 0)
(4.78323e-13 0 0)
(6.63041e-14 0 0)
(-4.53958e-12 0 0)
(6.48139e-13 0 0)
(2.39037e-12 0 0)
(9.56495e-17 0 0)
(1.91278e-12 0 0)
(-9.56493e-13 0 0)
(-9.17221e-24 0 0)
(4.78266e-13 0 0)
(-4.78247e-13 0 0)
(9.56474e-13 0 0)
(1.55996e-25 0 0)
(-9.56359e-13 0 0)
(-9.56398e-13 0 0)
(1.9127e-12 0 0)
(-7.48246e-13 0 0)
(-3.91454e-13 0 0)
(-7.73114e-13 0 0)
(-1.91299e-17 0 0)
(9.56455e-13 0 0)
(-3.82597e-17 0 0)
(3.82597e-17 0 0)
(-1.13817e-22 0 0)
(-2.89448e-12 0 0)
(2.55384e-14 0 0)
(2.0239e-12 0 0)
(-2.50198e-12 0 0)
(4.78228e-13 0 0)
(2.86879e-12 0 0)
(-4.78208e-13 0 0)
(4.78208e-13 0 0)
(1.91299e-17 0 0)
(9.56417e-13 0 0)
(-9.71606e-14 0 0)
(-1.33754e-12 0 0)
(1.43466e-12 0 0)
(-5.09945e-13 0 0)
(-7.87538e-13 0 0)
(3.41047e-13 0 0)
(1.91299e-17 0 0)
(1.91299e-17 0 0)
(9.56436e-13 0 0)
(9.91935e-24 0 0)
(4.04051e-36 0 0)
(1.95465e-29 0 0)
(-7.19144e-24 0 0)
(-7.48303e-13 0 0)
(-2.08171e-13 0 0)
(1.31288e-13 0 0)
(-1.08771e-12 0 0)
(5.73896e-17 0 0)
(1.43461e-12 0 0)
(-4.78151e-13 0 0)
(-2.82571e-12 0 0)
(1.39107e-12 0 0)
(9.56513e-13 0 0)
(-9.56493e-17 0 0)
(1.19543e-12 0 0)
(-5.50768e-13 0 0)
(-6.44772e-13 0 0)
(1.19562e-12 0 0)
(2.39104e-13 0 0)
(-2.54436e-24 0 0)
(-4.78189e-13 0 0)
(4.78132e-13 0 0)
(-9.56206e-13 0 0)
(-1.43466e-12 0 0)
(-2.36316e-23 0 0)
(-1.91298e-17 0 0)
(2.39093e-12 0 0)
(-1.03563e-12 0 0)
(-8.77238e-13 0 0)
(9.56513e-13 0 0)
(-4.78247e-13 0 0)
(4.78189e-13 0 0)
(7.93354e-13 0 0)
(-1.85411e-12 0 0)
(1.06083e-12 0 0)
(9.56359e-13 0 0)
(-9.56455e-13 0 0)
(9.56417e-13 0 0)
(-1.7083e-14 0 0)
(-1.41955e-12 0 0)
(-7.15266e-14 0 0)
(1.51926e-12 0 0)
(4.61242e-12 0 0)
(6.66962e-11 0 0)
(6.13315e-10 0 0)
(5.01441e-09 0 0)
(4.15865e-08 0 0)
(2.86397e-07 0 0)
(1.68797e-06 0 0)
(9.42772e-06 0 0)
(5.06975e-05 0 0)
(0.000263391 0 0)
(0.00132261 0 0)
(0.00644973 0 0)
(0.0287343 0 0)
(0.0950566 0 0)
(0.226179 0 0)
(0.492148 0 0)
(1.02223 0 0)
(2.01852 0 0)
(3.77577 0 0)
(6.67516 0 0)
(11.1429 0 0)
(17.5738 0 0)
(26.2407 0 0)
(37.2276 0 0)
(50.4112 0 0)
(65.4717 0 0)
(81.7879 0 0)
(99.1512 0 0)
(116.94 0 0)
(135.46 0 0)
(154.062 0 0)
(173.119 0 0)
(192.306 0 0)
(211.339 0 0)
(229.701 0 0)
(245.963 0 0)
(259.738 0 0)
(267.991 0 0)
(275.455 0 0)
(275.514 0 0)
(283.877 0 0)
(279.117 0 0)
(290.354 0 0)
(284.685 0 0)
(292.866 0 0)
(290.994 0 0)
(293.663 0 0)
(293.752 0 0)
(293.382 0 0)
(292.409 0 0)
(292.977 0 0)
(294.852 0 0)
(301.945 0 0)
(318.919 0 0)
(286.519 0 0)
(0.976397 0 0)
(-0.193497 0 0)
(0.437479 0 0)
(0.130506 0 0)
(0.280352 0 0)
(0.164045 0 0)
(0.212032 0 0)
(0.151045 0 0)
(0.155214 0 0)
(0.121451 0 0)
(0.12357 0 0)
(0.0994969 0 0)
(0.102456 0 0)
(0.0689956 0 0)
(0.0597298 0 0)
(0.0257521 0 0)
(0.00964155 0 0)
(0.00306916 0 0)
(0.000826927 0 0)
(0.000164 0 0)
(-4.20461e-06 0 0)
(-2.71031e-05 0 0)
(-2.89104e-05 0 0)
(-1.57177e-05 0 0)
(-7.73419e-06 0 0)
(-3.51641e-06 0 0)
(-1.80472e-06 0 0)
(-9.17089e-07 0 0)
(-5.06465e-07 0 0)
(-2.91185e-07 0 0)
(-1.97379e-07 0 0)
(-1.34331e-07 0 0)
(-1.17956e-07 0 0)
(-1.06909e-07 0 0)
(-1.01527e-07 0 0)
(-8.39812e-08 0 0)
(-7.77999e-08 0 0)
(-7.98062e-08 0 0)
(-6.72508e-08 0 0)
(-6.71154e-08 0 0)
(-7.08649e-08 0 0)
(-6.91829e-08 0 0)
(-6.32904e-08 0 0)
(-6.72849e-08 0 0)
(-6.86953e-08 0 0)
(-6.81108e-08 0 0)
(-6.84576e-08 0 0)
(-6.59172e-08 0 0)
(-6.22609e-08 0 0)
(-6.17548e-08 0 0)
(-4.4749e-08 0 0)
(-4.76028e-08 0 0)
(-2.84865e-08 0 0)
(-3.62629e-08 0 0)
(-2.67701e-08 0 0)
(-2.5621e-08 0 0)
(-1.75127e-08 0 0)
(-1.66235e-08 0 0)
(-1.08869e-08 0 0)
(-9.47296e-09 0 0)
(-7.52873e-09 0 0)
(2.95051e-10 0 0)
(1.79731e-10 0 0)
(1.46322e-08 0 0)
(1.64351e-08 0 0)
(2.08161e-08 0 0)
(1.69159e-08 0 0)
(2.54721e-08 0 0)
(2.86883e-08 0 0)
(3.96085e-08 0 0)
(2.57311e-08 0 0)
(3.26517e-08 0 0)
(2.37757e-08 0 0)
(2.73209e-08 0 0)
(1.93434e-08 0 0)
(2.47096e-08 0 0)
(2.14677e-08 0 0)
(2.85621e-08 0 0)
(3.11469e-08 0 0)
(2.57106e-08 0 0)
(3.29672e-08 0 0)
(2.11261e-08 0 0)
(3.2231e-08 0 0)
(1.73277e-08 0 0)
(2.72991e-08 0 0)
(2.98573e-08 0 0)
(2.94563e-08 0 0)
(3.19976e-08 0 0)
(3.08174e-08 0 0)
(4.08552e-08 0 0)
(4.06216e-08 0 0)
(4.10792e-08 0 0)
(4.21384e-08 0 0)
(5.00551e-08 0 0)
(4.21566e-08 0 0)
(4.71459e-08 0 0)
(4.1926e-08 0 0)
(4.3583e-08 0 0)
(3.64509e-08 0 0)
(3.83794e-08 0 0)
(4.78046e-08 0 0)
(3.27451e-08 0 0)
(3.99976e-08 0 0)
(2.21552e-08 0 0)
(3.21383e-08 0 0)
(1.39251e-08 0 0)
(2.70885e-08 0 0)
(2.33393e-08 0 0)
(2.55441e-08 0 0)
(3.56963e-08 0 0)
(2.66524e-08 0 0)
(4.88073e-08 0 0)
(2.68387e-08 0 0)
(4.20616e-08 0 0)
(2.60248e-08 0 0)
(3.41231e-08 0 0)
(2.10005e-08 0 0)
(2.34222e-08 0 0)
(1.74631e-08 0 0)
(3.35472e-08 0 0)
(1.13289e-08 0 0)
(1.98574e-08 0 0)
(2.17559e-08 0 0)
(3.45073e-08 0 0)
(2.21794e-08 0 0)
(3.41506e-08 0 0)
(3.71292e-08 0 0)
(3.41004e-08 0 0)
(3.27416e-08 0 0)
(2.92372e-08 0 0)
(2.84141e-08 0 0)
(2.67703e-08 0 0)
(2.34104e-08 0 0)
(2.29159e-08 0 0)
(3.0491e-08 0 0)
(2.77643e-08 0 0)
(2.35388e-08 0 0)
(2.38503e-08 0 0)
(1.79311e-08 0 0)
(1.83013e-08 0 0)
(8.98201e-09 0 0)
(1.06989e-08 0 0)
(1.42899e-09 0 0)
(4.9683e-09 0 0)
(2.03988e-09 0 0)
(1.73385e-09 0 0)
(-3.51603e-09 0 0)
(-1.60954e-09 0 0)
(-1.38033e-10 0 0)
(-3.53982e-09 0 0)
(3.5918e-09 0 0)
(-6.75078e-09 0 0)
(2.95374e-09 0 0)
(-9.77672e-09 0 0)
(-2.39287e-09 0 0)
(-1.59483e-08 0 0)
(-9.96719e-09 0 0)
(-2.25941e-08 0 0)
(-1.65225e-08 0 0)
(-2.79604e-08 0 0)
(-2.06054e-08 0 0)
(-1.88686e-08 0 0)
(-2.109e-08 0 0)
(-4.35531e-09 0 0)
(-1.05936e-08 0 0)
(-1.14428e-08 0 0)
(-1.34023e-08 0 0)
(-1.1394e-08 0 0)
(-7.81011e-09 0 0)
(-5.89803e-09 0 0)
(-6.26062e-09 0 0)
(-5.22919e-09 0 0)
(-2.09069e-09 0 0)
(-4.35345e-09 0 0)
(-3.88342e-09 0 0)
(-9.51457e-09 0 0)
(-7.78724e-09 0 0)
(-6.34357e-09 0 0)
(-8.384e-09 0 0)
(-8.42681e-09 0 0)
(-9.16292e-09 0 0)
(-6.45216e-09 0 0)
(-8.33041e-09 0 0)
(-5.64556e-09 0 0)
(-4.05418e-09 0 0)
(-5.1848e-09 0 0)
(-7.81823e-09 0 0)
(-8.15489e-09 0 0)
(-1.33986e-08 0 0)
(-1.35435e-08 0 0)
(-1.93677e-08 0 0)
(-1.92077e-08 0 0)
(-2.51206e-08 0 0)
(-2.14965e-08 0 0)
(-2.62206e-08 0 0)
(-2.092e-08 0 0)
(-2.5881e-08 0 0)
(-2.53677e-08 0 0)
(-2.68211e-08 0 0)
(-3.04657e-08 0 0)
(-1.60714e-08 0 0)
(-2.17542e-08 0 0)
(-1.43453e-09 0 0)
(-2.44461e-08 0 0)
(-3.03134e-10 0 0)
(-1.01828e-08 0 0)
(1.89404e-09 0 0)
(-7.51776e-09 0 0)
(8.19399e-09 0 0)
(-4.56766e-09 0 0)
(9.82044e-09 0 0)
(7.45538e-09 0 0)
(9.3809e-09 0 0)
(1.14821e-08 0 0)
(8.48681e-09 0 0)
(1.39032e-08 0 0)
(7.20987e-09 0 0)
(1.3749e-08 0 0)
(3.02413e-09 0 0)
(2.16359e-08 0 0)
(-8.28023e-10 0 0)
(1.51301e-08 0 0)
(2.15565e-11 0 0)
(1.51952e-08 0 0)
(3.75267e-09 0 0)
(1.2128e-08 0 0)
(3.63326e-09 0 0)
(1.40555e-08 0 0)
(1.54479e-08 0 0)
(1.28381e-08 0 0)
(1.52087e-08 0 0)
(1.4276e-08 0 0)
(1.93444e-08 0 0)
(1.60558e-08 0 0)
(1.9463e-08 0 0)
(1.14612e-08 0 0)
(1.44464e-08 0 0)
(6.2703e-09 0 0)
(1.12281e-08 0 0)
(2.69033e-09 0 0)
(1.0426e-08 0 0)
(8.85707e-09 0 0)
(8.18133e-09 0 0)
(1.7512e-08 0 0)
(3.50263e-09 0 0)
(1.10457e-08 0 0)
(8.56262e-09 0 0)
(6.36532e-09 0 0)
(8.19338e-09 0 0)
(6.081e-10 0 0)
(8.3043e-09 0 0)
(1.16365e-08 0 0)
(9.42962e-09 0 0)
(7.42493e-09 0 0)
(9.70328e-09 0 0)
(1.30169e-08 0 0)
(1.82654e-08 0 0)
(2.56068e-08 0 0)
(2.94242e-08 0 0)
(3.53894e-08 0 0)
(3.2349e-08 0 0)
(3.49137e-08 0 0)
(3.19025e-08 0 0)
(3.12735e-08 0 0)
(2.79339e-08 0 0)
(2.68735e-08 0 0)
(2.36986e-08 0 0)
(2.09211e-08 0 0)
(1.95066e-08 0 0)
(1.62973e-08 0 0)
(1.47112e-08 0 0)
(1.04034e-08 0 0)
(1.08947e-08 0 0)
(2.32726e-08 0 0)
(9.2396e-09 0 0)
(1.62207e-08 0 0)
(3.95179e-09 0 0)
(5.55932e-09 0 0)
(-2.10522e-10 0 0)
(1.44338e-09 0 0)
(3.58337e-09 0 0)
(1.35301e-08 0 0)
(1.6837e-08 0 0)
(1.6731e-08 0 0)
(1.79704e-08 0 0)
(1.51247e-08 0 0)
(1.71608e-08 0 0)
(1.50426e-08 0 0)
(1.99021e-08 0 0)
(1.90607e-08 0 0)
(1.97904e-08 0 0)
(1.69446e-08 0 0)
(1.81146e-08 0 0)
(1.65224e-08 0 0)
(1.04586e-08 0 0)
(7.09994e-09 0 0)
(1.28891e-08 0 0)
(7.73696e-09 0 0)
(7.76116e-09 0 0)
(2.96197e-09 0 0)
(2.20297e-09 0 0)
(-1.80051e-09 0 0)
(4.90579e-10 0 0)
(-1.17862e-09 0 0)
(2.71313e-09 0 0)
(9.33839e-10 0 0)
(3.21326e-09 0 0)
(3.59059e-09 0 0)
(-7.57091e-09 0 0)
(3.74965e-09 0 0)
(1.22237e-08 0 0)
(2.27116e-09 0 0)
(4.76065e-09 0 0)
(-2.54416e-09 0 0)
(2.86311e-09 0 0)
(-5.35107e-09 0 0)
(-5.32401e-10 0 0)
(-2.14873e-09 0 0)
(-9.22546e-09 0 0)
(-1.12936e-08 0 0)
(-1.80508e-08 0 0)
(-1.78492e-08 0 0)
(-2.32235e-08 0 0)
(-2.22021e-08 0 0)
(-3.12901e-08 0 0)
(-2.61336e-08 0 0)
(-3.68396e-08 0 0)
(-2.824e-08 0 0)
(-4.09625e-08 0 0)
(-2.54541e-08 0 0)
(-2.073e-08 0 0)
(-2.51644e-08 0 0)
(-2.25839e-08 0 0)
(-2.68891e-08 0 0)
(-2.38493e-08 0 0)
(-2.65398e-08 0 0)
(-2.11168e-08 0 0)
(-2.78687e-08 0 0)
(-2.65273e-08 0 0)
(-2.95418e-08 0 0)
(-3.15086e-08 0 0)
(-3.29495e-08 0 0)
(-3.11048e-08 0 0)
(-1.77246e-08 0 0)
(-2.83793e-08 0 0)
(-1.6238e-08 0 0)
(-2.84197e-08 0 0)
(-1.63389e-08 0 0)
(-1.65966e-08 0 0)
(-1.57022e-08 0 0)
(-1.78623e-08 0 0)
(-1.42583e-08 0 0)
(-2.41414e-09 0 0)
(-9.90702e-09 0 0)
(-4.50754e-09 0 0)
(-6.84955e-09 0 0)
(9.5813e-09 0 0)
(-8.92265e-09 0 0)
(2.69996e-09 0 0)
(-1.72785e-08 0 0)
(-5.47474e-09 0 0)
(-1.26261e-08 0 0)
(-1.2614e-08 0 0)
(-2.00939e-08 0 0)
(-1.38282e-08 0 0)
(-2.1351e-08 0 0)
(-1.53166e-08 0 0)
(-2.30844e-08 0 0)
(-1.58914e-08 0 0)
(-1.51505e-08 0 0)
(-1.18271e-08 0 0)
(-1.09935e-08 0 0)
(-1.06166e-08 0 0)
(-7.7077e-09 0 0)
(-1.19225e-08 0 0)
(3.8491e-09 0 0)
(-9.33603e-09 0 0)
(1.57092e-08 0 0)
(-5.96602e-10 0 0)
(1.36e-08 0 0)
(-1.68032e-09 0 0)
(1.24617e-08 0 0)
(1.21179e-09 0 0)
(1.16143e-08 0 0)
(2.94314e-09 0 0)
(1.39151e-08 0 0)
(1.66551e-08 0 0)
(1.61195e-08 0 0)
(1.71149e-08 0 0)
(1.59136e-08 0 0)
(1.54639e-08 0 0)
(1.43779e-08 0 0)
(1.32781e-08 0 0)
(1.28413e-08 0 0)
(1.28553e-08 0 0)
(1.04537e-08 0 0)
(9.84377e-09 0 0)
(7.85909e-09 0 0)
(5.91675e-09 0 0)
(3.1475e-09 0 0)
(8.02926e-10 0 0)
)
;

boundaryField
{
    sides
    {
        type            fixedValue;
        value           uniform (0 0 0);
    }
    empty1
    {
        type            empty;
    }
    empty2
    {
        type            empty;
    }
}


// ************************************************************************* //
