/*--------------------------------*- C++ -*----------------------------------*\
| =========                 |                                                 |
| \\      /  F ield         | OpenFOAM: The Open Source CFD Toolbox           |
|  \\    /   O peration     | Version:  2312                                  |
|   \\  /    A nd           | Website:  www.openfoam.com                      |
|    \\/     M anipulation  |                                                 |
\*---------------------------------------------------------------------------*/
FoamFile
{
    version     2.0;
    format      ascii;
    arch        "LSB;label=32;scalar=64";
    class       surfaceScalarField;
    location    "5e-05";
    object      deltaRho_own;
}
// * * * * * * * * * * * * * * * * * * * * * * * * * * * * * * * * * * * * * //

dimensions      [1 0 -1 0 0 0 0];

oriented        oriented;

internalField   nonuniform List<scalar> 
799
(
-0
-0
-0
-0
-6.10014e-17
-0
-0
-0
3.05007e-17
3.05007e-17
-0
-0
-0
-0
-0
-3.05007e-17
-0
-0
-3.05007e-17
-0
3.05007e-17
-0
-6.10014e-17
-0
-0
-0
3.05007e-17
-3.05007e-17
-3.05007e-17
-0
-0
-0
-0
-0
-0
-0
-0
-0
-0
-0
-0
-0
-0
-0
-0
-0
-3.05007e-17
-0
-0
-0
-0
-3.05007e-17
-0
-6.10014e-17
-0
-0
-3.05007e-17
-0
-0
-3.05007e-17
-3.05007e-17
-0
-3.05007e-17
-3.05007e-17
-3.05007e-17
-3.05007e-17
-0
-0
-3.05007e-17
-0
-0
-0
-0
-3.05007e-17
-0
-0
-3.05007e-17
-6.10014e-17
-0
-0
-3.05007e-17
-3.05007e-17
-3.05007e-17
-0
-0
-3.05007e-17
-3.05007e-17
-3.05007e-17
-3.05007e-17
-0
-0
-0
3.05007e-17
-3.05007e-17
-3.05007e-17
-0
-0
-3.05007e-17
-0
-0
-3.05007e-17
-0
-3.05007e-17
-0
-6.10014e-17
-3.05007e-17
-0
-0
-0
-0
-0
-0
-3.05007e-17
-3.05007e-17
-3.05007e-17
-0
-0
-3.05007e-17
-3.05007e-17
3.05007e-17
-0
-0
-0
-3.05007e-17
-0
-3.05007e-17
-3.05007e-17
-0
-0
-0
-0
-0
-0
-0
-0
3.05007e-17
-0
-3.05007e-17
-0
-0
-0
-0
-0
-6.10014e-17
-6.10014e-17
-0
-0
3.05007e-17
-0
-0
-3.05007e-17
-0
-0
-0
-0
-3.05007e-17
-3.05007e-17
-0
-0
-0
-0
-0
-0
-0
-3.05007e-17
-3.05007e-17
-0
-0
-0
-0
-3.05007e-17
-0
-0
-0
-0
-0
-0
-0
-0
-3.05007e-17
3.05007e-17
-0
-0
-0
-0
3.05007e-17
-3.05007e-17
3.05007e-17
-0
-3.05007e-17
6.10014e-17
-0
-3.05007e-17
-0
-0
-3.05007e-17
-0
-0
-0
-0
-0
-0
-0
3.05007e-17
-0
-0
-3.05007e-17
3.05007e-17
-3.05007e-17
-0
-0
-3.05007e-17
-3.05007e-17
-0
-3.05007e-17
-0
-6.10014e-17
-0
-0
3.05007e-17
-0
-0
-3.05007e-17
3.05007e-17
-0
-0
-0
-0
-0
-3.05007e-17
3.05007e-17
-0
-3.05007e-17
-6.10014e-17
-0
-0
-0
-0
6.10014e-17
-0
-0
-0
-6.10014e-17
-0
-0
-3.05007e-17
-0
-3.05007e-17
3.05007e-17
-3.05007e-17
3.05007e-17
-0
-0
-3.05007e-17
-0
-3.05007e-17
-3.05007e-17
-0
-3.05007e-17
-0
-0
-0
-3.05007e-17
3.05007e-17
-0
-6.10014e-17
-3.05007e-17
-0
-3.05007e-17
-0
-0
-0
-0
-3.05007e-17
-0
-3.05007e-17
-0
-0
-3.05007e-17
-3.05007e-17
-0
-0
-0
-0
-0
-3.05007e-17
-0
-3.05007e-17
-0
-3.05007e-17
-0
-3.05007e-17
-0
-3.05007e-17
3.05007e-17
-0
-0
-3.05007e-17
-0
-3.05007e-17
-0
-0
-3.05007e-17
-0
-3.05007e-17
-0
-3.05007e-17
-0
-3.05007e-17
-3.05007e-17
-0
-0
-0
-0
-3.05007e-17
-0
-3.05007e-17
-0
-3.05007e-17
-0
-0
-0
-0
-3.05007e-17
-0
-0
-0
-0
-3.05007e-17
-0
-0
-3.05007e-17
-3.05007e-17
-3.05007e-17
-0
-0
-0
-0
-3.05007e-17
-3.05007e-17
-0
-0
3.05007e-17
-0
-3.05007e-17
-3.05007e-17
6.10014e-17
-6.10014e-17
9.1502e-17
-0
-0
1.52503e-16
-9.15021e-17
9.15021e-17
-1.22003e-16
1.22003e-16
-3.05001e-17
-0
-0
6.09733e-17
1.20331e-11
1.38387e-11
1.79355e-11
2.04253e-11
1.99717e-11
1.59444e-11
8.88326e-12
-5.68591e-12
-1.14292e-11
-9.77441e-12
-1.92202e-11
-1.93244e-11
-1.47526e-11
-1.48141e-11
-5.92062e-12
-3.08882e-12
7.42719e-18
2.38425e-12
3.73239e-12
2.36186e-12
1.16156e-12
3.34556e-13
-2.89066e-13
-8.91114e-13
1.34703e-18
-2.29815e-12
-1.85805e-12
-1.90879e-12
-2.77141e-12
-1.07796e-12
-5.44677e-13
1.09118e-12
2.50307e-12
3.69285e-12
6.76367e-13
-1.05781e-11
-2.16847e-11
1.47144e-12
-0.00508782
10.6904
0.00589016
-0.00387844
4.56385e-07
-6.0266e-12
-5.19306e-11
5.83485e-14
2.92894e-10
-3.19168e-11
-2.91738e-13
-3.77287e-10
-3.75592e-10
2.01089e-10
-1.98615e-10
2.53369e-12
2.08146e-09
-2.08806e-09
9.47042e-11
-7.09343e-11
2.18112e-10
1.9006e-09
-8.33442e-15
-3.05522e-09
2.4148e-09
-1.66688e-14
-2.97039e-10
9.01976e-10
-3.26595e-09
7.48182e-10
-8.13107e-10
7.44773e-10
-7.27679e-10
2.67702e-10
3.12658e-10
-8.33442e-15
-8.8845e-11
-8.862e-11
4.80896e-12
8.81783e-12
-2.62785e-11
4.15055e-11
-3.55297e-11
6.83423e-12
-3.38211e-11
-5.73959e-10
-2.41538e-09
-8.90867e-11
5.8241e-11
-2.74286e-11
-3.69382e-11
3.69465e-11
8.33443e-15
-8.20275e-11
-2.15028e-12
-2.16695e-12
1.66689e-14
-8.33443e-15
-6.99259e-12
-4.33874e-10
-1.30596e-09
2.70632e-09
-3.96927e-09
7.27704e-10
1.8394e-09
-2.99039e-11
-4.20259e-09
4.0572e-11
4.27556e-12
4.27556e-12
-0
-8.62613e-12
-1.32732e-09
1.16279e-09
-4.92998e-10
-3.49738e-10
-8.33443e-15
-2.01361e-09
-3.34294e-11
-6.36815e-09
-0
-0
7.85687e-11
-0
1.66689e-14
-1.11681e-12
-3.75049e-12
1.66689e-14
-4.29714e-09
1.66688e-14
2.64535e-11
-6.53169e-11
1.0493e-10
-1.66689e-14
-2.20862e-11
1.49353e-11
1.4952e-11
-5.46572e-11
-5.17718e-10
-2.25848e-09
3.15041e-12
2.36781e-11
1.66689e-14
1.15472e-09
-1.12738e-09
1.16158e-09
-4.24999e-09
6.84257e-12
-2.27613e-11
-2.2753e-11
8.33443e-15
8.33443e-15
-1.7844e-11
-8.33443e-15
8.33443e-15
-0
-0
-3.21126e-10
-1.94052e-09
1.63762e-09
3.38503e-10
-2.59673e-09
7.85103e-12
1.2635e-11
-1.21349e-11
-3.33377e-14
-1.66689e-14
8.33443e-15
-8.33443e-15
-8.33443e-15
8.33443e-15
-2.04093e-10
2.66468e-10
-2.47403e-09
3.27968e-10
-3.33377e-14
-0
8.33443e-15
-0
-2.75453e-11
-1.91358e-11
-1.66689e-14
-3.41712e-12
-8.42569e-10
8.33576e-10
-5.35929e-10
6.1028e-10
-5.99112e-10
6.08105e-10
-2.08401e-09
-0
-0
8.33443e-15
-8.52029e-11
-6.90307e-10
9.25288e-10
-8.58054e-10
8.842e-10
-0
2.73369e-11
-2.20418e-09
2.24281e-09
-4.09405e-09
1.92775e-11
1.66689e-14
-0
3.43378e-12
-3.26605e-09
-7.74268e-12
4.15555e-11
-1.45186e-11
-0
-4.44308e-11
7.39347e-11
1.36601e-11
-1.36685e-11
2.55617e-11
-8.33443e-15
-3.46129e-11
1.17515e-12
3.41795e-11
-7.82603e-12
-1.66689e-14
-2.2719e-09
-2.55792e-10
1.246e-11
-4.34724e-11
-0
3.33377e-14
-5.53406e-11
-1.11681e-11
-1.66689e-14
-1.66689e-14
-2.73036e-11
3.41712e-12
-5.80035e-10
6.35442e-10
-7.8577e-10
7.64334e-10
-2.49491e-09
1.86535e-09
-1.35974e-09
3.89051e-11
-8.33443e-15
-3.26606e-09
-1.26683e-12
8.33443e-15
8.47261e-10
-8.47253e-10
8.81424e-10
-3.32755e-09
3.32754e-09
-2.25325e-09
1.41594e-09
-1.12743e-09
6.52586e-12
6.51752e-12
-0
-3.33377e-14
-0
-2.63118e-11
-1.19432e-11
-1.19182e-11
-0
-0
-3.58714e-10
-1.68687e-09
3.40878e-12
-4.15888e-12
-8.33443e-15
1.23266e-11
-8.33443e-15
9.60126e-12
-0
-4.20889e-12
-0
2.50033e-14
1.66689e-14
-1.17625e-09
1.18206e-09
-2.3778e-09
2.3778e-09
-3.2319e-09
8.33443e-15
-2.89788e-11
-2.46501e-09
8.33443e-15
8.33443e-15
-0
-2.78787e-11
-2.63254e-09
2.65112e-09
-2.70119e-11
-0
-2.72829e-09
-8.33443e-15
-3.82383e-11
-1.38518e-11
-0
1.13765e-11
1.13348e-11
-6.8259e-12
-1.08264e-11
1.70439e-11
1.31934e-11
7.48432e-12
-7.78261e-10
7.78944e-10
-4.47726e-11
5.70075e-12
-1.14791e-09
1.18206e-09
-3.49837e-09
-8.33443e-15
-2.2678e-11
-3.40045e-12
-0
2.04944e-11
8.33443e-15
-3.11491e-10
-1.19094e-09
1.35809e-10
-8.33443e-15
-8.33443e-15
8.25108e-13
-3.00623e-11
-1.32851e-11
-1.66689e-14
7.39264e-12
3.41712e-11
-1.70606e-11
8.33443e-15
-1.81188e-09
5.6029e-10
4.23614e-10
-2.66345e-09
-3.74216e-12
-1.99943e-11
-0
1.66689e-14
-3.41712e-12
1.15098e-11
-1.83441e-11
-8.33443e-15
-0
-3.9286e-10
-1.34949e-09
2.51443e-09
-5.45555e-10
-3.52546e-11
6.86757e-12
-4.0922e-12
-0
-0
2.0461e-11
6.84257e-12
-4.20884e-09
-1.66689e-14
-2.50033e-14
3.70049e-11
-3.15458e-11
-6.84257e-12
-7.11485e-10
8.6583e-10
-1.11015e-11
-3.45045e-10
-2.32264e-10
9.97156e-10
6.81756e-12
-2.06948e-09
-0
5.19235e-12
2.58867e-11
1.66689e-14
5.71408e-11
-9.97573e-10
1.02492e-09
-0
-1.17906e-09
1.15774e-09
8.30109e-12
-3.07924e-10
-4.05184e-09
5.0174e-09
1.66689e-14
-1.02347e-11
-3.33377e-14
-5.0938e-09
5.14508e-09
2.19612e-11
5.36737e-12
-2.70726e-09
-8.33443e-15
-2.18645e-10
1.85024e-12
-4.78637e-09
6.67588e-12
-0
-8.33443e-15
1.33351e-13
8.33443e-15
6.83423e-12
1.42102e-11
6.28416e-12
-2.65035e-12
-1.16763e-09
1.13425e-09
-4.27048e-10
-1.94184e-09
2.56911e-09
1.32101e-10
1.0243e-11
-4.79243e-09
4.86491e-09
-5.00842e-09
4.22861e-09
-3.88934e-09
-8.33442e-15
1.50311e-10
8.33443e-15
1.66689e-14
1.66689e-14
-3.66048e-11
7.24262e-12
-2.33531e-11
8.51779e-12
-3.48796e-11
-3.5413e-11
1.15015e-12
1.66689e-14
8.33443e-15
-5.46822e-11
-2.12445e-11
8.33443e-15
-0
2.24863e-11
-2.0086e-12
-6.67588e-12
1.53604e-11
-8.9095e-12
-1.62355e-11
)
;

boundaryField
{
    sides
    {
        type            calculated;
        value           uniform -0;
    }
    empty1
    {
        type            empty;
        value           nonuniform List<scalar> 0();
    }
    empty2
    {
        type            empty;
        value           nonuniform List<scalar> 0();
    }
}


// ************************************************************************* //
