/*--------------------------------*- C++ -*----------------------------------*\
| =========                 |                                                 |
| \\      /  F ield         | OpenFOAM: The Open Source CFD Toolbox           |
|  \\    /   O peration     | Version:  2312                                  |
|   \\  /    A nd           | Website:  www.openfoam.com                      |
|    \\/     M anipulation  |                                                 |
\*---------------------------------------------------------------------------*/
FoamFile
{
    version     2.0;
    format      ascii;
    arch        "LSB;label=32;scalar=64";
    class       surfaceScalarField;
    location    "5e-05";
    object      deltaRho_nei;
}
// * * * * * * * * * * * * * * * * * * * * * * * * * * * * * * * * * * * * * //

dimensions      [1 0 -1 0 0 0 0];

oriented        oriented;

internalField   nonuniform List<scalar> 
799
(
-0
-0
-0
3.05007e-17
-0
-0
-0
-3.05007e-17
-3.05007e-17
-0
-0
-0
-0
-0
3.05007e-17
-0
-0
3.05007e-17
-0
-3.05007e-17
-0
-0
-0
-0
9.1502e-17
-3.05007e-17
-3.05007e-17
3.05007e-17
-0
-0
-0
-0
-0
-0
-0
-0
-0
-0
-0
-0
-0
-0
-0
-0
-0
3.05007e-17
-0
-0
-0
-0
6.10014e-17
-0
-0
-0
-0
3.05007e-17
3.05007e-17
-0
-0
3.05007e-17
3.05007e-17
-0
3.05007e-17
3.05007e-17
3.05007e-17
-0
-0
3.05007e-17
-0
-0
-0
-0
3.05007e-17
-0
-0
6.10014e-17
3.05007e-17
-0
-0
3.05007e-17
3.05007e-17
3.05007e-17
-0
-0
6.10014e-17
3.05007e-17
3.05007e-17
3.05007e-17
-0
-0
-0
-3.05007e-17
3.05007e-17
3.05007e-17
-0
-0
3.05007e-17
-0
-0
3.05007e-17
-0
3.05007e-17
-0
-0
3.05007e-17
3.05007e-17
-0
3.05007e-17
-0
-0
-0
6.10014e-17
3.05007e-17
3.05007e-17
-0
-0
6.10014e-17
3.05007e-17
3.05007e-17
-0
-0
-0
3.05007e-17
-0
3.05007e-17
3.05007e-17
3.05007e-17
-0
-0
-0
-0
-0
-0
-0
-3.05007e-17
-0
-0
3.05007e-17
-0
-0
-0
-0
3.05007e-17
3.05007e-17
-0
-0
-3.05007e-17
-0
-0
3.05007e-17
-0
-0
-0
-0
-3.05007e-17
3.05007e-17
-0
-0
-0
-0
-0
-0
-0
-3.05007e-17
3.05007e-17
-0
-0
-0
-0
3.05007e-17
-0
-0
-0
-0
-0
-0
-0
-0
3.05007e-17
-3.05007e-17
-0
-0
-0
-0
-3.05007e-17
-0
-3.05007e-17
-0
3.05007e-17
3.05007e-17
-0
3.05007e-17
-0
-0
-0
3.05007e-17
-0
-0
-0
-0
-0
-0
-3.05007e-17
-0
-0
3.05007e-17
-3.05007e-17
-3.05007e-17
-0
-0
-0
3.05007e-17
-0
3.05007e-17
3.05007e-17
3.05007e-17
-0
-0
-3.05007e-17
-3.05007e-17
-0
3.05007e-17
-3.05007e-17
-0
-0
-0
-0
-0
3.05007e-17
-3.05007e-17
-0
-3.05007e-17
3.05007e-17
-0
-0
-0
-0
-0
-0
-0
-0
-0
-0
-0
3.05007e-17
-0
3.05007e-17
-6.10014e-17
3.05007e-17
-0
-0
-0
3.05007e-17
3.05007e-17
-0
3.05007e-17
-0
3.05007e-17
-0
-0
-0
3.05007e-17
-3.05007e-17
-0
-0
3.05007e-17
-0
3.05007e-17
3.05007e-17
-0
-0
-0
-0
-0
3.05007e-17
-0
-0
-0
3.05007e-17
-0
-0
-6.10014e-17
-0
-9.1502e-17
3.05007e-17
-0
3.05007e-17
-0
-0
-0
3.05007e-17
-0
3.05007e-17
3.05007e-17
-0
-0
3.05007e-17
-0
3.05007e-17
-0
-0
3.05007e-17
-0
3.05007e-17
-0
3.05007e-17
-0
3.05007e-17
3.05007e-17
-0
-0
-0
-0
-0
3.05007e-17
3.05007e-17
-0
3.05007e-17
3.05007e-17
-0
-0
-0
3.05007e-17
-0
-0
-0
-0
-0
-0
-0
-0
3.05007e-17
3.05007e-17
-0
3.05007e-17
-0
-0
3.05007e-17
3.05007e-17
-0
-0
-3.05007e-17
-3.05007e-17
-0
3.05007e-17
3.05007e-17
-0
-3.05007e-17
-3.05007e-17
-0
-3.05007e-17
-6.10014e-17
-0
-0
-0
-3.05007e-17
-0
-0
-3.04941e-17
-4.01299e-12
-9.96519e-12
-1.392e-11
-1.74386e-11
-1.92933e-11
-1.84127e-11
-1.44018e-11
-5.78082e-12
3.89895e-12
8.44044e-12
1.26512e-11
1.72348e-11
1.43471e-11
1.47526e-11
9.20546e-12
5.92062e-12
-0
2.93483e-12
-4.68372e-12
-4.34074e-12
-2.28223e-12
-1.41079e-12
-3.25725e-13
2.89066e-13
-1.53517e-18
1.6886e-12
3.29416e-12
1.85805e-12
5.1361e-12
2.77141e-12
2.46113e-12
-3.82431e-13
-7.05577e-13
-3.44411e-12
-6.51373e-12
-4.44502e-12
1.83227e-11
1.40692e-11
-0.0048129
0.0494465
0.000974489
0.273292
0.00129185
4.56889e-07
-6.46264e-10
5.19306e-11
8.33766e-10
-5.8578e-10
1.08362e-13
-4.44717e-10
3.77287e-10
2.01728e-10
-6.01176e-10
3.94762e-10
2.08162e-09
-6.2445e-09
4.2643e-09
-2.67094e-10
3.73574e-10
1.66884e-09
-3.30768e-09
-3.76e-09
8.51839e-09
-4.50823e-09
-6.11555e-10
1.49607e-09
-5.06991e-09
7.2801e-09
-2.30947e-09
2.37099e-09
-2.21724e-09
1.72309e-09
-4.1843e-10
-1.49637e-09
-4.64627e-10
4.76266e-09
-5.21884e-09
-9.70293e-11
5.46041e-09
4.14888e-11
-3.06584e-09
-4.27048e-10
4.26399e-09
3.41712e-12
-8.33443e-15
-1.16382e-10
8.88408e-10
1.67736e-09
-1.4718e-09
-1.04947e-09
1.42803e-09
-1.38708e-09
4.52795e-09
-1.16375e-09
1.17521e-09
-8.54071e-10
8.40252e-10
6.84257e-12
7.76685e-11
2.10694e-11
2.10861e-11
-1.66689e-14
3.21625e-11
-2.99206e-11
4.0547e-11
4.0547e-11
7.55907e-10
4.28389e-12
2.55546e-09
-1.31361e-09
1.31013e-09
-2.61201e-11
-4.5506e-11
1.14857e-10
2.50033e-14
-1.35851e-12
-3.34127e-11
5.74636e-09
-0
6.36814e-09
-9.39507e-10
1.01808e-09
-8.33443e-15
-5.03683e-09
3.83965e-09
3.92868e-10
9.6346e-11
-1.66689e-14
5.15059e-10
2.72585e-09
-4.21205e-10
-1.66719e-09
3.3328e-09
1.49436e-11
-8.45986e-10
8.60938e-10
4.99232e-12
-2.07527e-11
3.15041e-12
2.36048e-09
5.80751e-10
-1.18889e-09
-8.33443e-15
-1.66689e-14
8.33443e-15
-6.84257e-12
4.22723e-09
-4.96284e-09
4.94008e-09
-3.12258e-09
3.10475e-09
-8.33443e-15
-7.3793e-10
7.3793e-10
-0
-8.33443e-15
-8.33443e-15
-1.25433e-11
-4.07137e-11
4.0722e-11
7.91771e-12
-3.83659e-10
3.84841e-09
1.66689e-14
-2.09081e-09
1.25036e-09
2.80145e-10
8.33443e-15
8.33443e-15
6.23915e-11
8.33443e-15
-3.47379e-11
-0
8.33443e-15
1.45541e-09
-8.33443e-15
-0
-1.43644e-10
8.33776e-11
8.33443e-15
-0
1.49686e-11
-0
2.43282e-11
1.58604e-11
1.58354e-11
6.84257e-12
8.33443e-15
-0
2.084e-09
-1.91308e-10
1.50503e-10
3.05373e-11
1.65522e-11
2.33697e-11
7.45515e-11
3.33377e-14
1.02347e-11
1.64522e-11
2.21529e-11
1.92692e-11
1.92859e-11
8.7459e-10
1.48957e-09
3.40045e-12
-6.8509e-12
-7.74268e-12
7.11135e-10
1.24952e-09
-0
-2.59304e-09
6.88857e-10
6.76431e-10
8.33443e-15
-4.15121e-10
-1.34945e-09
2.64384e-09
-2.22529e-12
-1.70772e-11
-7.83436e-12
-8.33443e-15
1.66689e-14
-7.47098e-11
1.25183e-11
2.77165e-09
-8.33443e-15
-8.33443e-15
-1.38772e-09
1.32122e-09
8.33443e-15
1.66689e-14
8.33443e-15
3.39211e-12
2.12611e-11
6.84257e-12
-0
3.3221e-11
3.32127e-11
-0
8.33443e-15
3.89468e-11
2.07718e-09
-0
-1.26683e-12
3.26605e-09
-8.81433e-10
-0
-8.33443e-15
-0
2.50033e-14
-2.57617e-11
-2.57451e-11
2.50033e-14
6.51752e-12
1.91971e-09
-3.49838e-09
3.49841e-09
-4.24315e-09
4.21685e-09
-3.92802e-11
1.5352e-11
-0
-0
-8.33443e-15
5.89077e-11
-1.0243e-11
-4.14221e-12
2.70577e-09
-9.10078e-10
1.03174e-09
-4.50393e-11
-7.65276e-10
8.90875e-10
1.36768e-11
-0
-1.66689e-14
1.266e-11
6.8259e-12
-8.33443e-15
8.33443e-15
1.66689e-14
-8.33443e-15
3.20293e-09
2.89788e-11
-8.33443e-15
2.49396e-09
-8.88267e-10
8.60363e-10
3.90801e-11
-8.33443e-15
-3.38461e-11
-0
5.94662e-11
8.33443e-15
2.4189e-10
-1.77848e-10
2.68528e-09
-8.49528e-10
8.31234e-10
-6.96958e-10
7.20253e-10
-1.70856e-11
4.74062e-11
-2.66868e-11
4.16555e-11
-8.33443e-15
-1.05764e-11
-1.16682e-12
-8.33443e-15
2.50033e-14
8.33443e-15
8.33443e-15
3.47569e-09
-6.84257e-12
-9.87338e-10
9.77087e-10
-2.50033e-14
6.22582e-12
1.5052e-11
1.35843e-10
-6.83173e-11
2.32998e-09
-8.80199e-11
6.5617e-11
-1.1612e-09
1.17524e-09
-2.67702e-11
-0
-1.70856e-11
-1.66689e-14
5.3457e-11
6.84257e-12
3.33377e-14
-3.97052e-11
-3.75883e-12
1.03563e-09
5.36362e-10
-8.33443e-15
-6.84257e-12
-3.2921e-11
9.00118e-12
-1.66689e-14
8.33443e-15
-1.66689e-14
-8.33443e-15
2.50033e-14
3.52296e-11
-3.52213e-11
-9.1562e-10
2.66067e-09
-0
-0
-1.36601e-11
-2.50033e-14
6.16081e-11
1.66689e-14
4.2705e-09
-7.57433e-11
-3.49213e-11
8.88283e-11
-1.45352e-11
-8.76782e-12
-1.10848e-11
-0
-1.02347e-11
9.83463e-12
3.45045e-12
2.13111e-11
-0
2.096e-09
-8.41861e-10
7.41331e-10
-2.83121e-11
-1.66689e-14
-8.33443e-15
2.50033e-14
9.80962e-12
9.82629e-12
-5.36737e-12
6.38417e-12
-0
2.26446e-11
-3.33377e-14
-2.50033e-14
8.33443e-15
8.33443e-15
-8.33443e-15
2.19529e-11
-1.10848e-10
5.34237e-12
8.33443e-15
1.95417e-09
1.83357e-12
-3.41712e-12
6.71755e-12
6.19049e-09
-8.33443e-15
-4.76396e-11
4.78063e-11
-4.26364e-09
4.271e-09
-3.46962e-11
7.75102e-13
2.46699e-11
-1.66689e-14
-0
2.25863e-11
8.33443e-15
-9.67627e-11
-2.50033e-14
6.5692e-11
8.33443e-15
-0
5.92578e-12
1.90025e-11
6.66754e-14
3.00631e-10
4.24316e-09
-8.33443e-15
-2.42574e-10
-2.12408e-09
1.29865e-09
4.51493e-10
2.56117e-11
-6.608e-09
6.53085e-09
-1.15018e-09
-3.42545e-12
1.16155e-09
-1.38021e-09
1.2975e-09
-8.33443e-15
-8.60938e-10
7.19461e-10
1.85024e-11
1.38435e-11
8.55112e-12
-1.72898e-10
1.40894e-10
-1.02463e-10
)
;

boundaryField
{
    sides
    {
        type            calculated;
        value           uniform -0;
    }
    empty1
    {
        type            empty;
        value           nonuniform List<scalar> 0();
    }
    empty2
    {
        type            empty;
        value           nonuniform List<scalar> 0();
    }
}


// ************************************************************************* //
