/*--------------------------------*- C++ -*----------------------------------*\
| =========                 |                                                 |
| \\      /  F ield         | OpenFOAM: The Open Source CFD Toolbox           |
|  \\    /   O peration     | Version:  2312                                  |
|   \\  /    A nd           | Website:  www.openfoam.com                      |
|    \\/     M anipulation  |                                                 |
\*---------------------------------------------------------------------------*/
FoamFile
{
    version     2.0;
    format      ascii;
    arch        "LSB;label=32;scalar=64";
    class       volScalarField;
    location    "5e-05";
    object      maxKappa;
}
// * * * * * * * * * * * * * * * * * * * * * * * * * * * * * * * * * * * * * //

dimensions      [0 0 0 0 0 0 0];

internalField   nonuniform List<scalar> 
800
(
4.70291e-12
4.70291e-12
4.45539e-12
4.45539e-12
1.01484e-11
1.01484e-11
2.10393e-11
2.10393e-11
8.66326e-12
9.40583e-12
9.40583e-12
5.44548e-12
5.94052e-12
1.85641e-11
1.85641e-11
6.18804e-12
4.20787e-12
6.93061e-12
8.16822e-12
8.16822e-12
3.4653e-12
2.2277e-12
2.97026e-11
2.97026e-11
2.20294e-11
2.20294e-11
1.90592e-11
1.90592e-11
1.73265e-11
2.97026e-12
2.97026e-12
7.67317e-12
1.28711e-11
1.28711e-11
9.90087e-12
3.44055e-11
3.44055e-11
3.04452e-11
2.82175e-11
2.82175e-11
2.07918e-11
4.70291e-12
1.50988e-11
1.50988e-11
9.90087e-12
1.01484e-11
1.01484e-11
6.93061e-12
1.48513e-11
1.48513e-11
1.28711e-11
5.19796e-12
5.19796e-12
5.19796e-12
1.21286e-11
1.21286e-11
1.33662e-11
1.33662e-11
3.4653e-12
3.4653e-12
3.71283e-12
3.71283e-12
9.1583e-12
9.1583e-12
7.42565e-12
1.50988e-11
1.60889e-11
1.60889e-11
5.44548e-12
1.88117e-11
1.88117e-11
8.66326e-12
9.1583e-12
1.6584e-11
3.31679e-11
3.31679e-11
1.21286e-11
2.47522e-13
1.1881e-11
1.1881e-11
4.95043e-12
4.95043e-12
2.2277e-12
1.21286e-11
1.21286e-11
2.72274e-12
2.72274e-12
1.1881e-11
2.97026e-11
2.97026e-11
2.52472e-11
2.30195e-11
1.28711e-11
2.72274e-12
2.72274e-12
6.18804e-12
6.18804e-12
8.16822e-12
1.83166e-11
1.83166e-11
8.66326e-12
8.66326e-12
3.96035e-12
3.96035e-12
8.91078e-12
1.01484e-11
1.01484e-11
1.31187e-11
1.7079e-11
2.35146e-11
2.35146e-11
3.21778e-11
3.21778e-11
1.23761e-11
3.4653e-12
7.42565e-12
9.40583e-12
9.40583e-12
2.72274e-12
1.01484e-11
2.74749e-11
2.74749e-11
1.36137e-11
2.15344e-11
2.42571e-11
2.42571e-11
1.78216e-11
1.1881e-11
3.51481e-11
3.51481e-11
6.93061e-12
2.59898e-11
2.59898e-11
1.78216e-11
1.78216e-11
1.23761e-11
2.10393e-11
2.10393e-11
1.11385e-11
1.28711e-11
1.28711e-11
1.48513e-11
1.48513e-11
1.63364e-11
1.63364e-11
2.05443e-11
2.05443e-11
2.2277e-12
7.9207e-12
1.85641e-11
2.25245e-11
4.38113e-11
4.38113e-11
4.97519e-11
4.97519e-11
1.28711e-11
1.1386e-11
2.12869e-11
2.12869e-11
2.67323e-11
2.67323e-11
1.68315e-11
1.68315e-11
4.15837e-11
4.15837e-11
1.46038e-11
2.52472e-11
2.52472e-11
5.693e-12
1.28711e-11
1.28711e-11
6.06428e-11
6.06428e-11
4.62866e-11
5.02469e-11
5.02469e-11
1.58414e-11
8.66326e-12
6.68309e-12
9.90087e-13
6.18804e-12
7.17813e-12
7.17813e-12
2.54947e-11
3.11877e-11
3.11877e-11
1.93067e-11
1.93067e-11
5.44548e-12
7.42565e-12
8.66326e-12
8.66326e-12
7.67317e-12
1.01484e-11
1.68315e-11
1.68315e-11
1.01484e-11
1.0891e-11
1.0891e-11
3.34154e-11
3.34154e-11
1.48513e-11
1.48513e-11
2.47522e-13
3.96035e-12
1.06434e-11
1.06434e-11
8.66326e-12
8.66326e-12
1.93067e-11
1.93067e-11
1.1881e-11
7.17813e-12
2.64848e-11
2.64848e-11
4.70291e-12
1.48513e-12
1.41087e-11
1.41087e-11
1.06434e-11
1.06434e-11
1.16335e-11
1.16335e-11
1.21286e-11
2.62373e-11
3.83659e-11
3.83659e-11
3.63857e-11
3.31679e-11
2.54947e-11
1.80691e-11
8.91078e-12
2.72274e-12
4.95043e-12
2.17819e-11
2.17819e-11
2.2277e-12
4.95043e-12
1.63364e-11
1.63364e-11
2.2277e-12
9.40583e-12
1.28711e-11
3.63857e-11
3.63857e-11
2.97026e-12
1.55939e-11
1.55939e-11
1.1881e-11
3.21778e-12
8.41574e-12
8.41574e-12
8.16822e-12
5.693e-12
3.21778e-12
2.97026e-12
2.97026e-12
7.42565e-13
4.70291e-12
2.54947e-11
2.64848e-11
2.64848e-11
2.35146e-11
1.1881e-11
1.1881e-11
6.68309e-12
6.68309e-12
4.20787e-12
2.72274e-12
7.9207e-12
7.9207e-12
1.11385e-11
1.11385e-11
6.43557e-12
6.43557e-12
6.43557e-12
6.68309e-12
7.9207e-12
7.9207e-12
5.19796e-12
4.95043e-13
1.6584e-11
2.12869e-11
2.12869e-11
1.63364e-11
2.07918e-11
2.64848e-11
2.64848e-11
1.16335e-11
3.21778e-12
4.70291e-12
7.9207e-12
1.11385e-11
1.11385e-11
6.43557e-12
7.9207e-12
7.9207e-12
2.2277e-12
2.2277e-12
4.70291e-12
4.70291e-12
3.96035e-12
1.48513e-12
1.48513e-12
2.72274e-12
6.68309e-12
6.68309e-12
5.693e-12
9.65335e-12
1.1386e-11
1.1386e-11
2.35146e-11
2.35146e-11
1.50988e-11
1.50988e-11
6.18804e-12
6.18804e-12
7.17813e-12
7.17813e-12
8.66326e-12
8.66326e-12
3.4653e-12
3.4653e-12
7.42565e-13
1.55939e-11
1.55939e-11
7.42565e-12
1.28711e-11
1.28711e-11
1.26236e-11
1.26236e-11
2.47522e-12
2.47522e-12
7.67317e-12
7.67317e-12
5.94052e-12
1.31187e-11
1.31187e-11
9.90087e-13
8.41574e-12
1.06434e-11
1.1386e-11
1.1386e-11
1.1881e-11
1.03217e-10
1.8225e-09
1.55421e-08
1.33562e-07
1.05221e-06
7.30223e-06
4.65838e-05
0.000280311
0.0015875
0.00840956
0.0413131
0.180292
0.63324
1
1
1
1
1
1
1
1
1
1
1
1
1
1
1
1
1
1
1
1
1
1
1
1
1
1
1
1
1
1
1
1
1
1
1
1
1
1
1
1
1
1
1
0.294576
0.294576
0.10766
0.112913
0.119743
0.126842
0.129886
0.130495
0.130495
0.125586
0.107448
0.087237
0.0586657
0.0252173
0.0100835
0.00388789
0.00152643
0.000635922
0.000295107
0.000150294
8.15565e-05
4.46114e-05
2.46224e-05
1.34111e-05
7.2183e-06
3.8045e-06
1.92939e-06
9.40563e-07
4.36777e-07
1.93003e-07
9.14153e-08
4.18848e-08
1.23821e-08
4.22874e-09
4.22874e-09
2.38524e-09
4.94559e-09
7.81867e-09
7.81867e-09
4.31504e-09
8.08694e-10
3.56901e-09
3.56901e-09
2.48874e-09
2.48874e-09
3.99527e-09
4.41913e-09
4.41913e-09
2.7461e-09
2.84002e-09
7.00072e-09
1.15969e-08
1.15969e-08
9.36818e-09
7.57404e-09
5.72137e-09
4.36126e-09
2.19402e-09
4.44988e-09
4.44988e-09
6.98046e-09
6.98046e-09
3.40673e-09
4.23063e-09
4.75056e-09
4.75056e-09
3.19253e-09
3.19253e-09
2.76727e-09
3.13491e-10
1.78571e-09
4.58108e-09
6.70673e-09
8.55039e-09
8.55039e-09
4.50891e-09
3.08605e-09
3.08605e-09
3.00693e-09
3.00693e-09
1.14269e-09
1.84085e-09
1.84085e-09
5.11779e-09
5.11779e-09
4.70269e-09
2.4584e-09
4.60911e-09
7.92911e-09
7.92911e-09
5.2723e-09
7.67928e-09
7.67928e-09
5.22633e-09
2.75462e-09
1.32341e-09
3.29273e-09
3.29273e-09
2.98916e-09
2.95931e-09
2.95931e-09
2.47899e-09
5.52097e-09
5.52097e-09
6.51915e-09
6.51915e-09
1.62036e-09
6.51989e-09
6.51989e-09
9.63049e-09
9.63049e-09
7.64778e-09
5.04363e-09
2.30984e-09
2.76371e-09
4.87134e-09
4.87134e-09
4.43426e-09
2.44914e-09
3.74527e-09
3.74527e-09
6.40283e-09
6.40283e-09
6.174e-09
7.13927e-09
7.5103e-09
7.5103e-09
5.5876e-09
2.6779e-09
2.91153e-09
3.96228e-09
3.96228e-09
3.77917e-09
5.0638e-09
5.7861e-09
5.7861e-09
5.2613e-09
3.61093e-09
1.17989e-09
1.10119e-09
1.49627e-09
1.55373e-09
1.55373e-09
1.54273e-09
1.54273e-09
1.99181e-09
1.99181e-09
2.73998e-09
3.45228e-09
3.45228e-09
2.21353e-09
1.26115e-09
1.9117e-09
1.9117e-09
3.43335e-09
4.33637e-09
5.18888e-09
6.21227e-09
7.35116e-09
7.35116e-09
5.57215e-09
4.95872e-09
3.13557e-09
3.13557e-09
1.09135e-09
1.91409e-09
1.91409e-09
4.44186e-09
4.44186e-09
3.71551e-09
2.36623e-09
2.36623e-09
1.90938e-09
2.06092e-09
2.82348e-09
5.35224e-09
5.35224e-09
3.06215e-09
1.02149e-09
2.61474e-09
3.36291e-09
3.89879e-09
3.89879e-09
3.62333e-09
3.88391e-09
4.51651e-09
4.51651e-09
4.29553e-09
4.29553e-09
3.06455e-09
1.687e-09
1.27785e-09
2.9861e-09
4.30339e-09
4.30339e-09
4.75733e-09
4.75733e-09
4.80404e-09
4.80404e-09
3.17492e-09
3.17492e-09
7.35281e-10
1.53017e-09
3.09109e-09
3.09109e-09
1.82952e-09
4.10415e-09
5.93648e-09
7.89332e-09
7.89332e-09
2.62879e-09
2.62879e-09
2.32539e-09
9.03931e-10
9.03931e-10
5.57066e-09
5.57066e-09
8.62926e-09
8.62926e-09
5.48923e-09
2.5171e-09
1.82431e-09
2.8687e-09
3.21617e-09
3.21617e-09
2.58704e-09
4.64656e-09
4.64656e-09
4.23096e-09
4.23096e-09
4.1869e-09
3.85977e-09
3.85977e-09
2.17997e-09
1.18096e-09
3.17021e-09
4.57719e-09
4.57719e-09
5.38986e-09
5.38986e-09
2.51818e-09
2.7604e-09
2.7604e-09
9.55435e-10
4.35803e-09
4.35803e-09
1.01149e-09
2.62598e-09
5.6344e-09
5.6344e-09
5.2117e-09
5.2117e-09
3.86357e-09
3.2337e-09
2.4742e-09
5.20632e-09
5.53271e-09
5.67193e-09
5.75353e-09
5.79346e-09
5.79346e-09
4.56661e-09
3.41905e-09
1.42228e-09
1.43104e-09
2.21022e-09
3.03545e-09
3.03545e-09
3.84514e-09
3.84514e-09
4.74328e-09
4.74328e-09
2.67004e-09
1.79538e-09
1.10805e-09
2.74387e-10
1.4537e-09
3.00139e-09
3.84464e-09
3.84464e-09
3.44253e-09
3.6893e-09
4.07505e-09
4.07505e-09
4.0023e-09
3.60894e-09
2.36598e-09
9.61966e-10
2.86672e-09
4.96062e-09
6.43937e-09
6.43937e-09
4.75775e-10
6.89729e-10
3.79248e-09
5.23757e-09
5.51055e-09
5.51055e-09
4.88465e-09
3.10084e-09
3.21336e-09
5.55726e-09
6.23071e-09
6.23071e-09
6.07603e-09
4.8491e-09
1.19419e-09
1.94907e-09
4.41135e-09
4.41135e-09
2.79248e-09
1.39483e-09
5.38688e-10
1.49809e-09
3.26214e-09
3.26214e-09
3.21857e-09
2.03479e-09
2.44088e-09
2.44088e-09
1.59275e-09
4.79247e-10
1.49941e-09
2.4002e-09
2.72841e-09
2.72841e-09
1.8988e-09
9.78004e-10
6.23674e-10
6.23674e-10
6.46244e-10
6.46244e-10
4.63705e-10
1.15087e-09
2.34589e-09
3.27197e-09
4.07587e-09
5.01312e-09
5.70368e-09
6.24344e-09
6.96525e-09
6.96525e-09
3.16616e-09
3.76809e-09
3.81918e-09
3.81918e-09
2.46948e-09
7.4578e-10
7.09818e-10
6.47566e-10
1.13053e-09
1.14128e-09
2.63094e-09
2.63094e-09
5.33736e-09
5.33736e-09
4.4946e-09
2.99048e-09
2.11647e-09
7.55403e-09
7.55403e-09
6.8037e-09
4.02933e-09
1.51124e-09
3.96336e-09
6.48277e-09
8.87339e-09
8.87339e-09
7.06544e-09
1.01657e-08
1.05068e-08
1.05068e-08
4.83587e-09
4.83587e-09
6.81338e-09
6.81338e-09
6.94582e-09
6.94582e-09
6.31569e-09
5.47154e-09
5.47154e-09
4.66235e-09
3.21113e-09
2.16368e-09
5.90614e-09
5.90614e-09
6.28957e-09
6.66349e-09
6.66349e-09
5.88671e-09
5.88671e-09
5.88233e-09
5.46889e-09
4.53214e-09
4.47187e-09
4.31215e-09
3.69963e-09
2.4885e-09
2.09787e-09
8.99466e-10
)
;

boundaryField
{
    sides
    {
        type            calculated;
        value           uniform 0;
    }
    empty1
    {
        type            empty;
    }
    empty2
    {
        type            empty;
    }
}


// ************************************************************************* //
