/*--------------------------------*- C++ -*----------------------------------*\
| =========                 |                                                 |
| \\      /  F ield         | OpenFOAM: The Open Source CFD Toolbox           |
|  \\    /   O peration     | Version:  2312                                  |
|   \\  /    A nd           | Website:  www.openfoam.com                      |
|    \\/     M anipulation  |                                                 |
\*---------------------------------------------------------------------------*/
FoamFile
{
    version     2.0;
    format      ascii;
    arch        "LSB;label=32;scalar=64";
    class       volScalarField;
    location    "5e-05";
    object      minKappa;
}
// * * * * * * * * * * * * * * * * * * * * * * * * * * * * * * * * * * * * * //

dimensions      [0 0 0 0 0 0 0];

internalField   nonuniform List<scalar> 
800
(
4.70291e-12
1.98017e-12
1.98017e-12
2.47522e-12
2.47522e-12
6.18804e-12
6.18804e-12
2.47522e-13
2.47522e-13
8.66326e-12
4.70291e-12
4.70291e-12
5.44548e-12
5.94052e-12
6.18804e-12
4.20787e-12
7.42565e-13
7.42565e-13
6.93061e-12
3.4653e-12
9.90087e-13
9.90087e-13
2.2277e-12
5.693e-12
5.693e-12
1.63364e-11
1.63364e-11
1.73265e-11
2.47522e-12
2.47522e-12
4.95043e-13
4.95043e-13
7.67317e-12
9.90087e-12
8.66326e-12
8.66326e-12
3.04452e-11
4.45539e-12
4.45539e-12
2.07918e-11
4.70291e-12
1.98017e-12
1.98017e-12
9.90087e-12
6.68309e-12
6.68309e-12
1.73265e-12
1.73265e-12
6.93061e-12
1.28711e-11
5.19796e-12
1.23761e-12
1.23761e-12
1.23761e-12
1.23761e-12
5.94052e-12
5.94052e-12
1.48513e-12
1.48513e-12
0
0
1.98017e-12
1.98017e-12
2.47522e-12
2.47522e-12
7.42565e-12
1.50988e-11
1.23761e-12
1.23761e-12
5.44548e-12
8.66326e-12
4.20787e-12
4.20787e-12
9.1583e-12
1.6584e-11
1.21286e-11
2.47522e-13
2.47522e-13
2.47522e-13
2.97026e-12
2.97026e-12
2.2277e-12
7.42565e-13
7.42565e-13
9.90087e-13
9.90087e-13
2.47522e-13
2.47522e-13
1.1881e-11
2.52472e-11
2.30195e-11
1.28711e-11
9.90087e-13
9.90087e-13
7.42565e-13
7.42565e-13
3.4653e-12
3.4653e-12
8.16822e-12
1.48513e-12
1.48513e-12
1.73265e-12
1.73265e-12
7.42565e-13
7.42565e-13
8.91078e-12
7.67317e-12
7.67317e-12
1.31187e-11
1.7079e-11
4.70291e-12
4.70291e-12
1.23761e-11
4.95043e-13
4.95043e-13
3.4653e-12
7.42565e-12
2.72274e-12
4.95043e-13
4.95043e-13
1.01484e-11
1.36137e-11
2.97026e-12
2.97026e-12
2.15344e-11
1.78216e-11
1.03959e-11
1.03959e-11
1.1881e-11
6.18804e-12
6.18804e-12
6.93061e-12
1.63364e-11
1.63364e-11
1.23761e-11
1.73265e-12
1.73265e-12
1.11385e-11
9.65335e-12
9.65335e-12
7.17813e-12
7.17813e-12
7.67317e-12
7.67317e-12
1.73265e-12
1.73265e-12
1.98017e-12
1.98017e-12
2.2277e-12
7.9207e-12
1.85641e-11
2.25245e-11
3.96035e-12
3.96035e-12
1.28711e-11
9.90087e-13
9.90087e-13
1.1386e-11
2.47522e-12
2.47522e-12
8.91078e-12
8.91078e-12
5.94052e-12
5.94052e-12
9.40583e-12
9.40583e-12
1.46038e-11
5.693e-12
4.70291e-12
4.70291e-12
7.9207e-12
7.9207e-12
3.31679e-11
3.31679e-11
4.62866e-11
1.58414e-11
8.66326e-12
6.68309e-12
9.90087e-13
9.90087e-13
9.90087e-13
6.18804e-12
3.96035e-12
3.96035e-12
2.54947e-11
6.93061e-12
6.93061e-12
5.44548e-12
4.45539e-12
4.45539e-12
7.42565e-12
3.21778e-12
3.21778e-12
7.67317e-12
1.01484e-11
5.693e-12
5.693e-12
1.01484e-11
8.16822e-12
8.16822e-12
2.72274e-12
2.72274e-12
2.47522e-13
0
0
3.96035e-12
5.19796e-12
5.19796e-12
3.96035e-12
3.96035e-12
1.1881e-11
7.17813e-12
5.693e-12
5.693e-12
4.70291e-12
1.48513e-12
1.48513e-12
1.48513e-12
3.4653e-12
3.4653e-12
1.01484e-11
1.01484e-11
5.44548e-12
5.44548e-12
1.21286e-11
2.62373e-11
3.63857e-11
3.31679e-11
2.54947e-11
1.80691e-11
8.91078e-12
1.98017e-12
1.98017e-12
2.72274e-12
4.95043e-12
0
0
2.2277e-12
4.95043e-12
1.23761e-12
1.23761e-12
2.2277e-12
9.40583e-12
1.28711e-11
2.47522e-12
2.47522e-12
2.97026e-12
1.1881e-11
3.21778e-12
2.47522e-13
2.47522e-13
8.16822e-12
5.693e-12
3.21778e-12
9.90087e-13
9.90087e-13
7.42565e-13
4.95043e-13
4.95043e-13
4.70291e-12
2.54947e-11
2.35146e-11
1.1881e-11
1.1881e-11
5.19796e-12
5.19796e-12
4.20787e-12
4.95043e-13
4.95043e-13
2.72274e-12
7.67317e-12
7.67317e-12
5.19796e-12
5.19796e-12
6.43557e-12
5.94052e-12
5.94052e-12
6.68309e-12
5.19796e-12
2.47522e-13
2.47522e-13
4.95043e-13
1.6584e-11
1.63364e-11
2.47522e-12
2.47522e-12
2.07918e-11
1.16335e-11
1.48513e-12
1.48513e-12
3.21778e-12
4.70291e-12
7.9207e-12
7.42565e-13
7.42565e-13
6.43557e-12
1.98017e-12
1.98017e-12
2.47522e-13
2.47522e-13
3.96035e-12
1.48513e-12
1.48513e-12
1.23761e-12
1.23761e-12
2.72274e-12
7.42565e-13
7.42565e-13
5.693e-12
9.65335e-12
1.06434e-11
1.06434e-11
7.67317e-12
7.67317e-12
4.20787e-12
4.20787e-12
4.20787e-12
4.20787e-12
3.4653e-12
3.4653e-12
1.48513e-12
1.48513e-12
7.42565e-13
0
0
7.42565e-12
2.47522e-13
2.47522e-13
7.42565e-12
7.42565e-12
9.90087e-13
9.90087e-13
9.90087e-13
9.90087e-13
5.94052e-12
4.95043e-12
4.95043e-12
9.90087e-13
0
0
8.41574e-12
1.06434e-11
1.06434e-11
1.06434e-11
1.1881e-11
1.03217e-10
1.8225e-09
1.55421e-08
1.33562e-07
1.05221e-06
7.30223e-06
4.65838e-05
0.000280311
0.0015875
0.00840956
0.0413131
0.180292
0.63324
1
1
1
1
1
1
1
1
1
1
1
1
1
1
1
1
1
1
1
1
1
1
1
1
1
1
1
1
1
1
1
1
1
1
1
1
1
1
1
1
1
0.0594797
0.0594797
0.10766
0.106133
0.106133
0.112913
0.119743
0.126842
0.129886
0.125586
0.107448
0.087237
0.0586657
0.0252173
0.0100835
0.00388789
0.00152643
0.000635922
0.000295107
0.000150294
8.15565e-05
4.46114e-05
2.46224e-05
1.34111e-05
7.2183e-06
3.8045e-06
1.92939e-06
9.40563e-07
4.36777e-07
1.93003e-07
9.14153e-08
4.18848e-08
1.23821e-08
3.18534e-09
3.18534e-09
2.38524e-09
9.30303e-10
9.30303e-10
4.94559e-09
4.31504e-09
7.90258e-10
7.90258e-10
8.08694e-10
5.06446e-10
5.06446e-10
7.46194e-10
7.46194e-10
3.99527e-09
2.7461e-09
1.96114e-09
1.96114e-09
2.84002e-09
7.00072e-09
9.36818e-09
7.57404e-09
5.72137e-09
4.36126e-09
2.19402e-09
1.04257e-09
1.04257e-09
4.43335e-09
4.43335e-09
3.40673e-09
1.54001e-09
1.54001e-09
4.23063e-09
1.72908e-09
1.72908e-09
2.76727e-09
2.59506e-10
2.59506e-10
3.13491e-10
1.78571e-09
4.58108e-09
6.70673e-09
4.50891e-09
9.0079e-10
9.0079e-10
7.04279e-10
7.04279e-10
6.36819e-10
6.36819e-10
1.14269e-09
1.5429e-09
1.5429e-09
4.70269e-09
2.4584e-09
6.03833e-10
6.03833e-10
4.60911e-09
5.2723e-09
2.71651e-09
2.71651e-09
5.22633e-09
2.75462e-09
4.90656e-10
4.90656e-10
1.32341e-09
2.98916e-09
2.67583e-09
2.67583e-09
1.24669e-10
1.24669e-10
2.47899e-09
5.42044e-09
5.42044e-09
5.09918e-10
5.09918e-10
1.62036e-09
6.26568e-09
6.26568e-09
7.64778e-09
5.04363e-09
2.30984e-09
3.95335e-10
3.95335e-10
2.76371e-09
4.43426e-09
1.84134e-09
1.84134e-09
2.44914e-09
1.17559e-09
1.17559e-09
5.59066e-09
5.59066e-09
6.174e-09
7.13927e-09
5.5876e-09
2.6779e-09
8.0117e-10
8.0117e-10
2.91153e-09
3.77917e-09
7.48839e-10
7.48839e-10
5.0638e-09
5.2613e-09
3.61093e-09
1.17989e-09
2.93401e-10
2.93401e-10
1.10119e-09
1.49627e-09
9.9644e-10
9.9644e-10
1.49098e-09
1.49098e-09
1.78992e-09
1.78992e-09
2.73998e-09
2.21353e-09
1.26115e-09
1.29381e-10
1.29381e-10
1.90244e-09
1.90244e-09
3.43335e-09
4.33637e-09
5.18888e-09
6.21227e-09
5.57215e-09
4.95872e-09
1.27529e-09
1.27529e-09
1.09135e-09
2.04612e-10
2.04612e-10
1.7533e-09
1.7533e-09
3.71551e-09
1.39905e-09
1.39905e-09
1.85325e-09
1.85325e-09
1.90938e-09
2.06092e-09
2.82348e-09
3.06215e-09
1.02149e-09
8.40522e-10
8.40522e-10
2.61474e-09
3.36291e-09
2.86234e-09
2.86234e-09
3.62333e-09
3.88391e-09
4.28735e-09
4.28735e-09
3.06455e-09
1.687e-09
2.59919e-10
2.59919e-10
1.27785e-09
2.9861e-09
3.89242e-09
3.89242e-09
4.68649e-09
4.68649e-09
1.86705e-09
1.86705e-09
7.35281e-10
1.17394e-11
1.17394e-11
1.53017e-09
5.81677e-10
5.81677e-10
1.82952e-09
4.10415e-09
5.93648e-09
1.90682e-09
1.90682e-09
2.32539e-09
5.72831e-10
5.72831e-10
6.69888e-10
6.69888e-10
2.95733e-09
2.95733e-09
5.48923e-09
2.5171e-09
6.11769e-11
6.11769e-11
1.82431e-09
2.8687e-09
2.58704e-09
1.4742e-09
1.4742e-09
4.22799e-09
4.22799e-09
4.1869e-09
3.68599e-09
3.68599e-09
2.17997e-09
7.56775e-10
7.56775e-10
1.18096e-09
3.17021e-09
4.52561e-09
4.52561e-09
1.11772e-10
1.11772e-10
2.51818e-09
8.6615e-10
8.6615e-10
9.55435e-10
1.01149e-09
1.27728e-10
1.27728e-10
2.62598e-09
4.23105e-09
4.23105e-09
3.86357e-09
3.2337e-09
7.48343e-10
7.48343e-10
2.4742e-09
5.20632e-09
5.53271e-09
5.67193e-09
5.75353e-09
4.56661e-09
3.41905e-09
1.42228e-09
8.15968e-11
8.15968e-11
1.43104e-09
2.21022e-09
2.97957e-09
2.97957e-09
2.90004e-09
2.90004e-09
2.67004e-09
1.79538e-09
1.10805e-09
1.64682e-10
1.64682e-10
2.74387e-10
1.4537e-09
3.00139e-09
2.56365e-09
2.56365e-09
3.44253e-09
3.6893e-09
4.0023e-09
3.60894e-09
2.36598e-09
9.61966e-10
8.2283e-10
8.2283e-10
2.86672e-09
4.96062e-09
4.75775e-10
2.69675e-10
2.69675e-10
6.89729e-10
3.79248e-09
5.23757e-09
4.88465e-09
3.10084e-09
8.9616e-11
8.9616e-11
3.21336e-09
5.55726e-09
6.07603e-09
4.8491e-09
1.19419e-09
6.40209e-10
6.40209e-10
1.94907e-09
2.79248e-09
1.39483e-09
3.435e-10
3.435e-10
5.38688e-10
1.49809e-09
3.21857e-09
2.03479e-09
1.88284e-09
1.88284e-09
1.59275e-09
2.9613e-10
2.9613e-10
4.79247e-10
1.49941e-09
2.4002e-09
1.8988e-09
9.78004e-10
5.65225e-10
5.65225e-10
5.75559e-10
5.75559e-10
4.63705e-10
2.35697e-10
2.35697e-10
1.15087e-09
2.34589e-09
3.27197e-09
4.07587e-09
5.01312e-09
5.70368e-09
6.24344e-09
3.16616e-09
3.04372e-09
3.04372e-09
3.76809e-09
2.46948e-09
7.4578e-10
7.09818e-10
6.47566e-10
5.11241e-10
5.11241e-10
1.13053e-09
1.14128e-09
1.58655e-09
1.58655e-09
4.4946e-09
2.99048e-09
2.11647e-09
2.092e-09
2.092e-09
6.8037e-09
4.02933e-09
9.54195e-10
9.54195e-10
1.51124e-09
3.96336e-09
6.48277e-09
4.2909e-09
4.2909e-09
7.06544e-09
1.01657e-08
4.14987e-09
4.14987e-09
3.94327e-09
3.94327e-09
2.43468e-09
2.43468e-09
6.31569e-09
5.28561e-09
5.28561e-09
4.66235e-09
3.21113e-09
2.16368e-09
1.31704e-09
1.31704e-09
5.72534e-09
5.72534e-09
6.28957e-09
5.81528e-09
5.81528e-09
5.88233e-09
5.46889e-09
4.53214e-09
4.47187e-09
4.31215e-09
3.69963e-09
2.4885e-09
2.09787e-09
8.99466e-10
8.99466e-10
)
;

boundaryField
{
    sides
    {
        type            calculated;
        value           uniform 0;
    }
    empty1
    {
        type            empty;
    }
    empty2
    {
        type            empty;
    }
}


// ************************************************************************* //
