/*--------------------------------*- C++ -*----------------------------------*\
| =========                 |                                                 |
| \\      /  F ield         | OpenFOAM: The Open Source CFD Toolbox           |
|  \\    /   O peration     | Version:  2312                                  |
|   \\  /    A nd           | Website:  www.openfoam.com                      |
|    \\/     M anipulation  |                                                 |
\*---------------------------------------------------------------------------*/
FoamFile
{
    version     2.0;
    format      ascii;
    arch        "LSB;label=32;scalar=64";
    class       surfaceScalarField;
    location    "5e-05";
    object      phi;
}
// * * * * * * * * * * * * * * * * * * * * * * * * * * * * * * * * * * * * * //

dimensions      [1 0 -1 0 0 0 0];

oriented        oriented;

internalField   nonuniform List<scalar> 
799
(
5.27356e-16
2.22045e-16
-4.996e-16
2.77556e-16
1.13798e-15
-6.93889e-16
-2.35922e-15
-2.77556e-17
9.71445e-16
1.05471e-15
5.27356e-16
6.10623e-16
-6.66134e-16
-2.08167e-15
-6.93889e-16
-4.71845e-16
-8.32667e-17
7.77156e-16
-9.15934e-16
3.88578e-16
-1.11022e-16
2.498e-16
3.33067e-15
6.38378e-16
-2.47025e-15
-1.83187e-15
2.13718e-15
1.94289e-15
-2.77556e-16
-3.33067e-16
5.55112e-17
-8.60423e-16
-1.44329e-15
1.11022e-15
9.71445e-16
-3.85803e-15
-3.41394e-15
-4.996e-16
3.16414e-15
2.33147e-15
5.27356e-16
2.22045e-16
-1.69309e-15
-1.11022e-15
7.49401e-16
1.13798e-15
-1.94289e-16
-7.77156e-16
1.66533e-15
1.44329e-15
-5.82867e-16
-1.38778e-16
-5.82867e-16
-1.38778e-16
1.36002e-15
-6.66134e-16
-1.4988e-15
-1.66533e-16
3.88578e-16
0
-4.16334e-16
2.22045e-16
1.02696e-15
2.77556e-16
8.32667e-16
1.69309e-15
-1.80411e-15
1.38778e-16
6.10623e-16
-2.10942e-15
-9.71445e-16
4.71845e-16
-1.02696e-15
-1.85962e-15
3.71925e-15
1.36002e-15
2.77556e-17
2.77556e-17
-1.33227e-15
3.33067e-16
5.55112e-16
2.498e-16
8.32667e-17
-1.36002e-15
1.11022e-16
3.05311e-16
-2.77556e-17
-1.33227e-15
-3.33067e-15
2.83107e-15
2.58127e-15
-1.44329e-15
1.11022e-16
3.05311e-16
-8.32667e-17
6.93889e-16
3.88578e-16
-9.15934e-16
-2.05391e-15
-1.66533e-16
9.71445e-16
1.94289e-16
-4.44089e-16
-8.32667e-17
9.99201e-16
1.13798e-15
8.60423e-16
-1.47105e-15
-1.91513e-15
-2.63678e-15
-5.27356e-16
3.60822e-15
1.38778e-15
5.55112e-17
-3.88578e-16
-8.32667e-16
1.05471e-15
3.05311e-16
5.55112e-17
-1.13798e-15
-3.08087e-15
1.52656e-15
3.33067e-16
-2.41474e-15
2.72005e-15
1.9984e-15
1.16573e-15
-1.33227e-15
-3.94129e-15
-6.93889e-16
7.77156e-16
2.91434e-15
-1.83187e-15
-1.9984e-15
1.38778e-15
-1.94289e-16
2.35922e-15
1.249e-15
-1.08247e-15
1.44329e-15
8.04912e-16
-1.66533e-15
-8.60423e-16
1.83187e-15
1.94289e-16
-2.30371e-15
-2.22045e-16
2.498e-16
8.88178e-16
2.08167e-15
-2.52576e-15
-4.91274e-15
4.44089e-16
5.57887e-15
1.44329e-15
-1.11022e-16
-1.27676e-15
-2.38698e-15
-2.77556e-16
-2.9976e-15
-9.99201e-16
-1.88738e-15
6.66134e-16
4.66294e-15
1.05471e-15
-1.63758e-15
2.83107e-15
6.38378e-16
-5.27356e-16
1.44329e-15
-8.88178e-16
-6.80012e-15
-3.71925e-15
5.19029e-15
5.63438e-15
1.77636e-15
-9.71445e-16
-7.49401e-16
1.11022e-16
-1.11022e-16
6.93889e-16
8.04912e-16
-4.44089e-16
-2.85882e-15
-3.4972e-15
7.77156e-16
2.16493e-15
6.10623e-16
4.996e-16
-8.32667e-16
-9.71445e-16
3.60822e-16
-8.60423e-16
1.13798e-15
1.88738e-15
-6.38378e-16
-1.13798e-15
-1.22125e-15
-9.15934e-16
3.747e-15
3.05311e-16
-1.66533e-15
-2.77556e-17
0
4.44089e-16
1.19349e-15
5.82867e-16
9.71445e-16
4.44089e-16
-2.16493e-15
-1.33227e-15
-8.04912e-16
6.38378e-16
2.96985e-15
-5.27356e-16
1.66533e-16
1.66533e-16
-1.58207e-15
-3.88578e-16
-1.19349e-15
-1.13798e-15
1.30451e-15
-6.10623e-16
-1.36002e-15
2.94209e-15
4.30211e-15
-4.08007e-15
-3.71925e-15
2.85882e-15
2.02616e-15
9.99201e-16
-2.22045e-16
3.05311e-16
-5.55112e-16
-2.44249e-15
0
2.498e-16
5.55112e-16
1.83187e-15
1.38778e-16
2.498e-16
1.05471e-15
-1.44329e-15
-4.08007e-15
-2.77556e-16
-3.33067e-16
1.7486e-15
1.33227e-15
3.60822e-16
-2.77556e-17
9.4369e-16
9.15934e-16
-6.38378e-16
3.60822e-16
1.11022e-16
-3.33067e-16
-8.32667e-17
-5.55112e-17
5.27356e-16
-2.85882e-15
-2.96985e-15
2.63678e-15
1.33227e-15
1.33227e-15
5.82867e-16
-7.49401e-16
4.71845e-16
-5.55112e-17
3.05311e-16
8.88178e-16
-8.60423e-16
-1.249e-15
5.82867e-16
7.21645e-16
-7.21645e-16
-6.66134e-16
-7.49401e-16
8.88178e-16
5.82867e-16
-2.77556e-17
5.55112e-17
-1.85962e-15
-2.38698e-15
1.83187e-15
-2.77556e-16
-2.33147e-15
2.96985e-15
1.30451e-15
1.66533e-16
3.60822e-16
5.27356e-16
8.88178e-16
-1.249e-15
8.32667e-17
7.21645e-16
-8.88178e-16
-2.22045e-16
2.498e-16
-2.77556e-17
5.27356e-16
4.44089e-16
1.66533e-16
1.66533e-16
-1.38778e-16
-3.05311e-16
-7.49401e-16
8.32667e-17
-6.38378e-16
-1.08247e-15
1.27676e-15
1.19349e-15
-2.63678e-15
-8.60423e-16
1.69309e-15
4.71845e-16
6.93889e-16
4.71845e-16
-8.04912e-16
3.88578e-16
9.71445e-16
1.66533e-16
-3.88578e-16
-8.32667e-17
0
-1.7486e-15
-8.32667e-16
2.77556e-17
1.44329e-15
8.32667e-16
-1.41553e-15
1.11022e-16
2.77556e-16
-1.11022e-16
8.60423e-16
-6.66134e-16
-5.55112e-16
1.47105e-15
-1.11022e-16
0
9.4369e-16
-1.19349e-15
-1.27676e-15
1.19349e-15
1.33227e-15
1.15741e-14
2.04364e-13
1.7428e-12
1.49768e-11
1.17988e-10
8.18828e-10
5.22363e-09
3.14324e-08
1.78012e-07
9.42995e-07
4.63257e-06
2.02164e-05
7.10013e-05
0.000190039
0.000422942
0.000892501
0.00179103
0.00340477
0.00610886
0.0103179
0.0163856
0.0244777
0.0344744
0.0459604
0.058351
0.070648
0.0824247
0.0932477
0.102736
0.111169
0.11804
0.123987
0.128383
0.131756
0.133721
0.134697
0.134734
0.134385
0.133555
0.132811
0.13092
0.128779
0.125301
0.12047
0.11535
0.10844
0.101816
0.0951379
0.0890908
0.0839791
0.0798437
0.0762992
0.0725403
0.0635385
0.0457969
-0.00704855
0.0201655
0.0178943
0.0182513
0.0194199
0.0205941
0.0218157
0.0223394
0.0224444
0.0215988
0.0184791
0.0150013
0.010087
0.00433519
0.00173338
0.000668321
0.000262387
0.000109312
5.07276e-05
2.58349e-05
1.40192e-05
7.66849e-06
4.23248e-06
2.30531e-06
1.24079e-06
6.53975e-07
3.31653e-07
1.61678e-07
7.50799e-08
3.31764e-08
1.57139e-08
7.1998e-09
2.12843e-09
5.47544e-10
7.26899e-10
4.10012e-10
1.59915e-10
8.50122e-10
1.34399e-09
7.41736e-10
1.35842e-10
1.39011e-10
6.13497e-10
-8.70557e-11
-4.27804e-10
-1.28267e-10
6.86768e-10
7.59627e-10
4.72042e-10
3.3711e-10
4.88185e-10
1.20339e-09
1.99346e-09
1.61035e-09
1.30194e-09
9.83476e-10
7.49679e-10
3.77142e-10
-1.79213e-10
-7.64913e-10
-7.62071e-10
-1.19991e-09
-5.85601e-10
-2.6472e-10
-7.27226e-10
-8.16598e-10
2.9722e-10
5.48781e-10
4.7568e-10
4.46079e-11
5.38876e-11
-3.06954e-10
-7.87466e-10
-1.15286e-09
-1.46977e-09
-7.7506e-10
-1.54841e-10
5.30477e-10
-1.21062e-10
5.16877e-10
1.09466e-10
1.96422e-10
3.16433e-10
2.65217e-10
8.79723e-10
8.0837e-10
4.22588e-10
-1.03796e-10
7.92284e-10
1.36298e-09
9.06283e-10
4.66954e-10
1.32003e-09
8.98382e-10
4.73506e-10
8.43414e-11
-2.27487e-10
-5.66004e-10
-5.13822e-10
4.59963e-10
5.08692e-10
2.143e-11
-4.26127e-10
-9.49029e-10
-9.31749e-10
-1.12061e-09
8.76526e-11
2.78533e-10
1.12074e-09
1.07704e-09
1.65544e-09
1.31462e-09
8.66976e-10
3.97051e-10
-6.79563e-11
-4.75069e-10
-8.3736e-10
-7.62228e-10
-3.16518e-10
-4.20997e-10
-6.43794e-10
2.02078e-10
1.10062e-09
9.61009e-10
1.06128e-09
1.22721e-09
1.29099e-09
9.60483e-10
4.60318e-10
-1.37717e-10
-5.00478e-10
-6.81098e-10
-6.49621e-10
-1.28722e-10
8.70443e-10
9.94604e-10
9.04393e-10
6.20702e-10
2.02817e-10
-5.04343e-11
-1.89289e-10
-2.57202e-10
-2.67079e-10
-1.71283e-10
-2.65189e-10
-2.56293e-10
-3.42382e-10
-3.07679e-10
-4.7099e-10
5.93431e-10
3.80496e-10
2.16787e-10
-2.224e-11
-3.28612e-10
-3.2702e-10
-5.90177e-10
-7.45402e-10
-8.91944e-10
-1.06786e-09
-1.26363e-09
-9.57826e-10
-8.52381e-10
2.19217e-10
5.38989e-10
1.87597e-10
-3.51719e-11
-3.29024e-10
3.01384e-10
7.63535e-10
6.38678e-10
2.4049e-10
4.06743e-10
3.18565e-10
3.28214e-10
3.54262e-10
4.85343e-10
9.20025e-10
5.2637e-10
1.75589e-10
-1.44482e-10
-4.49461e-10
-5.78069e-10
-6.70184e-10
-4.92022e-10
6.22833e-10
6.67626e-10
7.76367e-10
7.36975e-10
7.38382e-10
5.26782e-10
2.89987e-10
4.46789e-11
-2.19657e-10
-5.13296e-10
-7.39732e-10
-6.6909e-10
-8.17764e-10
-8.05585e-10
-8.25793e-10
-3.20938e-10
-5.45754e-10
1.26391e-10
-2.01794e-12
-2.63029e-10
5.31344e-10
9.99876e-11
-3.14486e-10
-7.05484e-10
-1.02045e-09
-1.35682e-09
-3.27773e-10
-4.51877e-10
-3.99723e-10
-9.8467e-11
1.55381e-10
1.15151e-10
9.5757e-10
5.08351e-10
1.48333e-09
9.43572e-10
4.32678e-10
1.0516e-11
-3.13591e-10
-4.93117e-10
-5.52845e-10
-4.447e-10
2.53408e-10
7.98721e-10
7.26772e-10
7.27283e-10
7.19709e-10
6.33605e-10
6.63476e-10
3.74726e-10
1.30086e-10
-2.03002e-10
-5.44944e-10
-7.86798e-10
-7.77931e-10
-9.26491e-10
-1.92131e-11
-4.32863e-10
4.745e-10
1.48887e-10
-1.64235e-10
7.49125e-10
1.7387e-10
2.19558e-11
-4.51394e-10
-9.68527e-10
-7.27297e-10
-8.95866e-10
-6.6413e-10
-5.55858e-10
1.28637e-10
4.25302e-10
8.94943e-10
9.51047e-10
9.74978e-10
9.89004e-10
9.95868e-10
7.84979e-10
5.87718e-10
2.44484e-10
1.40261e-11
-2.4599e-10
-3.79927e-10
-5.2178e-10
-5.12173e-10
-6.60961e-10
-4.98503e-10
-8.15348e-10
4.58968e-10
3.08617e-10
1.90468e-10
2.8308e-11
-4.71658e-11
-2.49884e-10
-5.15925e-10
-6.60876e-10
4.40679e-10
5.91754e-10
6.34174e-10
7.00481e-10
6.87976e-10
6.20361e-10
4.067e-10
1.65358e-10
-1.41441e-10
-4.92776e-10
-8.52708e-10
-1.1069e-09
-8.17835e-11
-4.63558e-11
-1.18561e-10
6.51909e-10
9.00314e-10
9.47239e-10
8.39648e-10
5.33021e-10
1.54046e-11
-5.52362e-10
-9.55268e-10
-1.07103e-09
-1.04444e-09
-8.33538e-10
-2.05276e-10
-1.10049e-10
3.35035e-10
7.58291e-10
4.80014e-10
2.39766e-10
5.90461e-11
-9.25979e-11
-2.57515e-10
-5.60746e-10
5.53257e-10
3.49772e-10
3.23652e-10
4.19575e-10
2.73786e-10
-5.09033e-11
-8.23803e-11
-2.57742e-10
-4.12584e-10
-4.69001e-10
-3.26395e-10
-1.68114e-10
-9.71596e-11
1.07207e-10
9.8936e-11
1.11086e-10
7.97087e-11
-4.05151e-11
-1.97829e-10
-4.03247e-10
-5.62437e-10
-7.00624e-10
-8.61732e-10
-9.80435e-10
-1.07322e-09
-1.19729e-09
-5.44247e-10
-5.23201e-10
-6.47717e-10
-6.56499e-10
-4.24492e-10
-1.28196e-10
1.22014e-10
1.11314e-10
-8.78799e-11
1.94333e-10
-1.96181e-10
-4.52246e-10
-2.72721e-10
9.17467e-10
7.72602e-10
5.14049e-10
3.63812e-10
3.59606e-10
1.2985e-09
1.16952e-09
6.92623e-10
1.64022e-10
-2.59774e-10
-6.81283e-10
-1.11436e-09
-1.52529e-09
-7.37586e-10
-1.21452e-09
-1.74744e-09
-1.80607e-09
-7.13342e-10
-8.31264e-10
-6.77829e-10
-1.17119e-09
4.1851e-10
1.19395e-09
1.08564e-09
9.08571e-10
9.40531e-10
8.01435e-10
5.51978e-10
3.71926e-10
2.26393e-10
1.01524e-09
9.84159e-10
1.08115e-09
1.14542e-09
9.9962e-10
1.0119e-09
1.01114e-09
9.40076e-10
7.79053e-10
7.68694e-10
7.41238e-10
6.3595e-10
4.27761e-10
3.60615e-10
1.54614e-10
)
;

boundaryField
{
    sides
    {
        type            calculated;
        value           uniform 0;
    }
    empty1
    {
        type            empty;
        value           nonuniform List<scalar> 0();
    }
    empty2
    {
        type            empty;
        value           nonuniform List<scalar> 0();
    }
}


// ************************************************************************* //
