/*--------------------------------*- C++ -*----------------------------------*\
| =========                 |                                                 |
| \\      /  F ield         | OpenFOAM: The Open Source CFD Toolbox           |
|  \\    /   O peration     | Version:  2312                                  |
|   \\  /    A nd           | Website:  www.openfoam.com                      |
|    \\/     M anipulation  |                                                 |
\*---------------------------------------------------------------------------*/
FoamFile
{
    version     2.0;
    format      ascii;
    arch        "LSB;label=32;scalar=64";
    class       volVectorField;
    location    "5e-05";
    object      U;
}
// * * * * * * * * * * * * * * * * * * * * * * * * * * * * * * * * * * * * * //

dimensions      [0 1 -1 0 0 0 0];

internalField   nonuniform List<vector> 
800
(
(2.39086e-13 0 0)
(4.78208e-13 0 0)
(-2.52629e-13 0 0)
(-4.64664e-13 0 0)
(9.56416e-13 0 0)
(8.55181e-13 0 0)
(-2.02668e-12 0 0)
(-9.80004e-13 0 0)
(4.77978e-13 0 0)
(9.5634e-13 0 0)
(4.78132e-13 0 0)
(4.7817e-13 0 0)
(4.78227e-13 0 0)
(-1.56599e-12 0 0)
(-1.48386e-12 0 0)
(2.6535e-13 0 0)
(-1.04088e-12 0 0)
(9.56264e-13 0 0)
(-2.07903e-13 0 0)
(-7.48093e-13 0 0)
(1.15722e-12 0 0)
(-1.32393e-12 0 0)
(2.08005e-12 0 0)
(2.86763e-12 0 0)
(-1.85263e-12 0 0)
(-2.0405e-12 0 0)
(6.79684e-14 0 0)
(2.39108e-12 0 0)
(4.78208e-13 0 0)
(-4.78208e-13 0 0)
(-3.82598e-17 0 0)
(-5.73896e-17 0 0)
(-1.37507e-12 0 0)
(-5.37702e-13 0 0)
(1.91299e-12 0 0)
(-1.45846e-12 0 0)
(-3.5762e-12 0 0)
(-1.17894e-12 0 0)
(4.77883e-13 0 0)
(3.8236e-12 0 0)
(3.826e-17 0 0)
(9.55536e-13 0 0)
(-9.56168e-13 0 0)
(-1.30959e-12 0 0)
(-1.24861e-13 0 0)
(9.56226e-13 0 0)
(4.78132e-13 0 0)
(-5.75025e-13 0 0)
(-3.8143e-13 0 0)
(2.86909e-12 0 0)
(-5.2037e-13 0 0)
(-4.36008e-13 0 0)
(1.04086e-13 0 0)
(-1.06046e-12 0 0)
(9.56494e-13 0 0)
(9.56302e-13 0 0)
(-2.09298e-12 0 0)
(-2.97833e-13 0 0)
(7.65194e-17 0 0)
(4.78018e-13 0 0)
(-4.78208e-13 0 0)
(-3.82598e-17 0 0)
(4.78208e-13 0 0)
(9.56416e-13 0 0)
(-4.78132e-13 0 0)
(1.91233e-12 0 0)
(-1.61666e-13 0 0)
(-1.75063e-12 0 0)
(1.91219e-12 0 0)
(-1.33917e-12 0 0)
(-1.6258e-12 0 0)
(9.62998e-14 0 0)
(4.78132e-13 0 0)
(-2.38942e-12 0 0)
(9.56589e-13 0 0)
(3.34562e-12 0 0)
(-9.56456e-13 0 0)
(9.56456e-13 0 0)
(-9.56416e-13 0 0)
(-9.56494e-13 0 0)
(1.43455e-12 0 0)
(-4.78132e-13 0 0)
(9.56378e-13 0 0)
(-9.56188e-13 0 0)
(-9.56378e-13 0 0)
(9.56264e-13 0 0)
(-4.78208e-13 0 0)
(4.78208e-13 0 0)
(-2.8604e-12 0 0)
(-1.44141e-12 0 0)
(5.25809e-12 0 0)
(-1.0355e-12 0 0)
(-8.772e-13 0 0)
(9.56302e-13 0 0)
(-4.78132e-13 0 0)
(4.784e-13 0 0)
(4.78132e-13 0 0)
(3.46825e-14 0 0)
(-1.46911e-12 0 0)
(-1.37789e-12 0 0)
(8.99563e-13 0 0)
(4.7817e-13 0 0)
(-1.65952e-13 0 0)
(-3.12257e-13 0 0)
(4.78132e-13 0 0)
(9.56378e-13 0 0)
(9.56416e-13 0 0)
(3.82597e-17 0 0)
(-1.91278e-12 0 0)
(-1.30724e-12 0 0)
(-2.99361e-12 0 0)
(2.38976e-12 0 0)
(2.86749e-12 0 0)
(-4.78324e-13 0 0)
(4.78227e-13 0 0)
(-1.16447e-12 0 0)
(2.08305e-13 0 0)
(9.56226e-13 0 0)
(-4.78246e-13 0 0)
(6.00008e-13 0 0)
(-2.63213e-12 0 0)
(-1.31372e-12 0 0)
(2.86811e-12 0 0)
(-2.3887e-12 0 0)
(3.48425e-23 0 0)
(2.86645e-12 0 0)
(4.78208e-13 0 0)
(1.30728e-12 0 0)
(-3.58526e-12 0 0)
(-1.54403e-12 0 0)
(-2.48688e-16 0 0)
(1.43474e-12 0 0)
(2.32408e-12 0 0)
(-5.08918e-12 0 0)
(1.80634e-12 0 0)
(2.29558e-16 0 0)
(2.39162e-13 0 0)
(3.10676e-12 0 0)
(-1.06414e-12 0 0)
(-3.70068e-13 0 0)
(2.39078e-12 0 0)
(-1.11586e-12 0 0)
(-1.27525e-12 0 0)
(4.78132e-13 0 0)
(1.91295e-12 0 0)
(-1.74933e-12 0 0)
(-1.5764e-12 0 0)
(9.34838e-13 0 0)
(-4.78094e-13 0 0)
(1.91268e-12 0 0)
(5.66551e-13 0 0)
(-4.02552e-12 0 0)
(-3.70956e-12 0 0)
(4.30158e-12 0 0)
(3.82333e-12 0 0)
(-9.56302e-13 0 0)
(8.24153e-13 0 0)
(-3.1078e-12 0 0)
(-1.06266e-13 0 0)
(-1.43001e-12 0 0)
(-2.19641e-12 0 0)
(-7.82985e-14 0 0)
(-2.50405e-12 0 0)
(3.6277e-12 0 0)
(4.01454e-12 0 0)
(-2.38952e-12 0 0)
(9.56226e-13 0 0)
(2.38962e-12 0 0)
(-9.56494e-13 0 0)
(4.78132e-13 0 0)
(1.43474e-12 0 0)
(-4.0352e-12 0 0)
(-5.90782e-12 0 0)
(1.62726e-12 0 0)
(5.15982e-12 0 0)
(3.15586e-12 0 0)
(1.39112e-13 0 0)
(-1.09545e-12 0 0)
(-1.81132e-23 0 0)
(-3.82598e-17 0 0)
(7.65194e-17 0 0)
(9.5634e-13 0 0)
(3.82597e-17 0 0)
(-8.26028e-13 0 0)
(-3.33261e-12 0 0)
(-1.57882e-12 0 0)
(1.91243e-12 0 0)
(1.43421e-12 0 0)
(5.73897e-17 0 0)
(6.1426e-13 0 0)
(-1.92603e-12 0 0)
(4.5114e-13 0 0)
(-2.87273e-13 0 0)
(-4.77137e-13 0 0)
(2.10312e-12 0 0)
(4.39432e-13 0 0)
(-9.17622e-13 0 0)
(-8.1214e-13 0 0)
(-1.33726e-12 0 0)
(1.19437e-12 0 0)
(3.25033e-12 0 0)
(-2.56876e-12 0 0)
(-1.08524e-13 0 0)
(-2.10429e-16 0 0)
(-7.65195e-17 0 0)
(7.64946e-13 0 0)
(8.60806e-13 0 0)
(2.87044e-13 0 0)
(1.24292e-12 0 0)
(-1.14785e-12 0 0)
(-1.72597e-12 0 0)
(-5.6898e-13 0 0)
(-8.59791e-13 0 0)
(2.48619e-12 0 0)
(9.34322e-13 0 0)
(-9.35011e-13 0 0)
(1.19544e-12 0 0)
(-1.0237e-12 0 0)
(-1.12815e-12 0 0)
(3.68135e-13 0 0)
(-2.34689e-12 0 0)
(7.8377e-13 0 0)
(8.15047e-13 0 0)
(-1.5323e-12 0 0)
(7.65197e-17 0 0)
(4.11159e-12 0 0)
(1.33844e-12 0 0)
(-6.75816e-12 0 0)
(1.30859e-12 0 0)
(2.38982e-12 0 0)
(9.56416e-13 0 0)
(4.78132e-13 0 0)
(-4.78284e-13 0 0)
(9.56494e-13 0 0)
(-1.91241e-12 0 0)
(-1.43455e-12 0 0)
(9.5611e-13 0 0)
(-4.7794e-13 0 0)
(1.43462e-12 0 0)
(1.05166e-12 0 0)
(-4.78246e-13 0 0)
(8.60748e-13 0 0)
(9.00864e-13 0 0)
(-3.38406e-12 0 0)
(-1.81915e-12 0 0)
(-3.44338e-16 0 0)
(1.53039e-16 0 0)
(2.38992e-12 0 0)
(-1.33909e-16 0 0)
(4.7817e-13 0 0)
(-4.7817e-13 0 0)
(1.91272e-12 0 0)
(-5.20389e-13 0 0)
(-4.35989e-13 0 0)
(9.56416e-13 0 0)
(-7.73095e-13 0 0)
(2.94887e-13 0 0)
(-4.7817e-13 0 0)
(4.784e-13 0 0)
(6.63806e-14 0 0)
(-4.53858e-12 0 0)
(6.4791e-13 0 0)
(2.38952e-12 0 0)
(1.91299e-16 0 0)
(1.91257e-12 0 0)
(-9.56494e-13 0 0)
(-9.17206e-24 0 0)
(4.78284e-13 0 0)
(-4.78246e-13 0 0)
(9.56456e-13 0 0)
(1.57722e-25 0 0)
(-9.56226e-13 0 0)
(-9.56302e-13 0 0)
(1.91241e-12 0 0)
(-7.48131e-13 0 0)
(-3.91417e-13 0 0)
(-7.73058e-13 0 0)
(-7.65195e-17 0 0)
(9.56416e-13 0 0)
(-7.65194e-17 0 0)
(7.65194e-17 0 0)
(-9.56495e-17 0 0)
(-2.89379e-12 0 0)
(2.5481e-14 0 0)
(2.02327e-12 0 0)
(-2.50121e-12 0 0)
(3.82655e-13 0 0)
(2.77252e-12 0 0)
(-3.82597e-13 0 0)
(6.69373e-13 0 0)
(-9.55537e-14 0 0)
(9.5634e-13 0 0)
(-9.71797e-14 0 0)
(-1.33748e-12 0 0)
(1.43459e-12 0 0)
(-5.09888e-13 0 0)
(-7.87538e-13 0 0)
(3.41047e-13 0 0)
(3.82598e-17 0 0)
(3.82598e-17 0 0)
(8.60882e-13 0 0)
(9.31602e-24 0 0)
(1.91012e-13 0 0)
(-9.55154e-14 0 0)
(-6.44901e-24 0 0)
(-6.35284e-13 0 0)
(-3.21133e-13 0 0)
(2.25025e-13 0 0)
(-1.1814e-12 0 0)
(1.14779e-16 0 0)
(1.43447e-12 0 0)
(-4.78037e-13 0 0)
(-2.82538e-12 0 0)
(1.39076e-12 0 0)
(9.56474e-13 0 0)
(-1.14779e-16 0 0)
(1.19529e-12 0 0)
(-5.50749e-13 0 0)
(-6.44734e-13 0 0)
(1.19562e-12 0 0)
(2.39086e-13 0 0)
(-2.54396e-24 0 0)
(-4.78132e-13 0 0)
(4.78018e-13 0 0)
(-9.55958e-13 0 0)
(-1.43463e-12 0 0)
(7.65194e-17 0 0)
(-3.82596e-17 0 0)
(2.39062e-12 0 0)
(-1.03546e-12 0 0)
(-8.77295e-13 0 0)
(9.56532e-13 0 0)
(-4.78246e-13 0 0)
(4.78132e-13 0 0)
(7.93316e-13 0 0)
(-1.85386e-12 0 0)
(1.06069e-12 0 0)
(9.56226e-13 0 0)
(-9.56416e-13 0 0)
(9.56378e-13 0 0)
(-4.83986e-15 0 0)
(-1.33216e-12 0 0)
(-1.16482e-13 0 0)
(1.49542e-12 0 0)
(1.5983e-13 0 0)
(1.99154e-11 0 0)
(2.51496e-10 0 0)
(2.12185e-09 0 0)
(2.00231e-08 0 0)
(1.62893e-07 0 0)
(1.11629e-06 0 0)
(7.07974e-06 0 0)
(4.25112e-05 0 0)
(0.00024031 0 0)
(0.00127401 0 0)
(0.00638541 0 0)
(0.0286818 0 0)
(0.0950504 0 0)
(0.22627 0 0)
(0.492153 0 0)
(1.02236 0 0)
(2.01851 0 0)
(3.77565 0 0)
(6.67509 0 0)
(11.143 0 0)
(17.5738 0 0)
(26.2406 0 0)
(37.2274 0 0)
(50.411 0 0)
(65.4715 0 0)
(81.7877 0 0)
(99.1512 0 0)
(116.94 0 0)
(135.46 0 0)
(154.062 0 0)
(173.119 0 0)
(192.306 0 0)
(211.339 0 0)
(229.701 0 0)
(245.963 0 0)
(259.738 0 0)
(267.991 0 0)
(275.455 0 0)
(275.514 0 0)
(283.877 0 0)
(279.117 0 0)
(290.354 0 0)
(284.684 0 0)
(292.867 0 0)
(291.012 0 0)
(293.717 0 0)
(294.073 0 0)
(293.845 0 0)
(293.092 0 0)
(292.128 0 0)
(291.127 0 0)
(287.226 0 0)
(256.397 0 0)
(177.367 0 0)
(-8.12098 0 0)
(-0.325699 0 0)
(0.474042 0 0)
(0.0400478 0 0)
(0.256405 0 0)
(0.177725 0 0)
(0.234245 0 0)
(0.215433 0 0)
(0.232907 0 0)
(0.209732 0 0)
(0.210678 0 0)
(0.148767 0 0)
(0.128257 0 0)
(0.0596319 0 0)
(0.0248231 0 0)
(0.00949536 0 0)
(0.00366826 0 0)
(0.00149972 0 0)
(0.000661799 0 0)
(0.000338653 0 0)
(0.000177199 0 0)
(0.000100433 0 0)
(5.33976e-05 0 0)
(3.03651e-05 0 0)
(1.58993e-05 0 0)
(8.67832e-06 0 0)
(4.40539e-06 0 0)
(2.18621e-06 0 0)
(1.02883e-06 0 0)
(4.63116e-07 0 0)
(1.97321e-07 0 0)
(1.08752e-07 0 0)
(3.73125e-08 0 0)
(9.78984e-09 0 0)
(3.83268e-09 0 0)
(6.65957e-09 0 0)
(1.2005e-09 0 0)
(5.0012e-10 0 0)
(1.65532e-08 0 0)
(9.17466e-09 0 0)
(6.19272e-09 0 0)
(-5.80535e-10 0 0)
(7.07966e-09 0 0)
(1.39067e-09 0 0)
(-2.48369e-09 0 0)
(-5.05718e-09 0 0)
(1.60499e-09 0 0)
(7.71977e-09 0 0)
(7.24911e-09 0 0)
(-5.73103e-10 0 0)
(8.05775e-09 0 0)
(6.19913e-09 0 0)
(1.68512e-08 0 0)
(1.84845e-08 0 0)
(1.32914e-08 0 0)
(1.23864e-08 0 0)
(7.81214e-09 0 0)
(5.39847e-09 0 0)
(1.88344e-09 0 0)
(-6.82865e-09 0 0)
(-6.81403e-09 0 0)
(-9.21411e-09 0 0)
(-1.07585e-08 0 0)
(-2.25331e-09 0 0)
(-3.25998e-09 0 0)
(-1.01195e-08 0 0)
(-2.34176e-09 0 0)
(5.42373e-09 0 0)
(5.34458e-09 0 0)
(3.15253e-09 0 0)
(-1.64931e-09 0 0)
(2.72854e-09 0 0)
(-9.18562e-09 0 0)
(-6.83801e-09 0 0)
(-1.99291e-08 0 0)
(-6.58874e-09 0 0)
(-8.89554e-09 0 0)
(5.13022e-09 0 0)
(2.23153e-09 0 0)
(1.16858e-09 0 0)
(8.16937e-09 0 0)
(-3.30375e-09 0 0)
(8.80664e-09 0 0)
(-2.48947e-09 0 0)
(6.34123e-09 0 0)
(9.56217e-09 0 0)
(4.81026e-09 0 0)
(8.9221e-10 0 0)
(-8.00453e-10 0 0)
(1.40056e-08 0 0)
(1.25406e-08 0 0)
(3.60211e-09 0 0)
(1.01817e-08 0 0)
(1.19559e-08 0 0)
(5.67395e-09 0 0)
(3.79947e-09 0 0)
(-1.56941e-09 0 0)
(-3.18416e-09 0 0)
(-6.14314e-09 0 0)
(-1.54833e-09 0 0)
(8.51994e-09 0 0)
(7.08542e-10 0 0)
(7.32091e-10 0 0)
(-9.89923e-09 0 0)
(-6.21747e-09 0 0)
(-1.57446e-08 0 0)
(-3.66423e-09 0 0)
(1.11002e-09 0 0)
(4.46883e-09 0 0)
(1.50456e-08 0 0)
(1.059e-08 0 0)
(1.86323e-08 0 0)
(8.36397e-09 0 0)
(8.30034e-09 0 0)
(8.32602e-10 0 0)
(-1.7285e-09 0 0)
(-7.36869e-09 0 0)
(-8.77544e-09 0 0)
(-6.33124e-09 0 0)
(-1.47473e-09 0 0)
(-6.13405e-09 0 0)
(-4.39501e-09 0 0)
(8.8325e-09 0 0)
(1.16746e-08 0 0)
(6.36066e-09 0 0)
(1.15896e-08 0 0)
(1.4813e-08 0 0)
(9.72831e-09 0 0)
(6.72569e-09 0 0)
(1.36814e-09 0 0)
(-3.88912e-09 0 0)
(-5.72345e-09 0 0)
(-7.68302e-09 0 0)
(-7.4145e-09 0 0)
(7.12136e-09 0 0)
(1.09007e-08 0 0)
(8.89757e-09 0 0)
(7.95428e-09 0 0)
(3.03425e-09 0 0)
(9.94468e-10 0 0)
(-1.57979e-09 0 0)
(-1.72804e-09 0 0)
(-4.06263e-09 0 0)
(-1.39902e-09 0 0)
(-1.68054e-09 0 0)
(-2.05708e-09 0 0)
(-2.88642e-09 0 0)
(-1.98796e-09 0 0)
(-4.38095e-09 0 0)
(-1.9607e-10 0 0)
(7.22396e-09 0 0)
(6.00032e-10 0 0)
(2.5997e-09 0 0)
(-3.65706e-09 0 0)
(-2.08326e-09 0 0)
(-4.94922e-09 0 0)
(-5.92727e-09 0 0)
(-8.14171e-09 0 0)
(-8.25388e-09 0 0)
(-1.4265e-08 0 0)
(-9.87736e-09 0 0)
(-9.23189e-09 0 0)
(-7.06129e-09 0 0)
(1.04039e-08 0 0)
(1.41119e-09 0 0)
(2.9585e-09 0 0)
(-3.5844e-09 0 0)
(-2.58641e-09 0 0)
(6.54045e-09 0 0)
(7.6029e-09 0 0)
(4.23985e-09 0 0)
(1.20464e-09 0 0)
(4.86025e-09 0 0)
(2.31392e-09 0 0)
(3.85197e-09 0 0)
(2.61207e-09 0 0)
(7.77734e-09 0 0)
(8.98385e-09 0 0)
(2.25982e-09 0 0)
(1.3449e-09 0 0)
(-4.38746e-09 0 0)
(-5.2912e-09 0 0)
(-6.34851e-09 0 0)
(-9.31799e-09 0 0)
(3.88592e-09 0 0)
(7.21509e-09 0 0)
(7.832e-09 0 0)
(6.75249e-09 0 0)
(6.99064e-09 0 0)
(6.81324e-09 0 0)
(3.08714e-09 0 0)
(1.62863e-09 0 0)
(-7.82161e-10 0 0)
(-2.53491e-09 0 0)
(-6.86504e-09 0 0)
(-5.6396e-09 0 0)
(-8.17757e-09 0 0)
(-6.98094e-09 0 0)
(-9.1417e-09 0 0)
(-4.88848e-09 0 0)
(-2.81652e-09 0 0)
(-3.48212e-09 0 0)
(6.78659e-09 0 0)
(-6.82729e-09 0 0)
(2.50179e-09 0 0)
(4.41863e-09 0 0)
(-1.69741e-09 0 0)
(-4.95097e-09 0 0)
(-6.70042e-09 0 0)
(-1.38398e-08 0 0)
(-8.18955e-09 0 0)
(-3.68392e-09 0 0)
(-5.35279e-09 0 0)
(-3.21561e-09 0 0)
(1.44207e-09 0 0)
(1.65939e-09 0 0)
(6.49801e-09 0 0)
(7.29273e-09 0 0)
(7.24847e-09 0 0)
(1.64491e-08 0 0)
(4.04132e-09 0 0)
(4.54546e-09 0 0)
(-3.39945e-09 0 0)
(-3.09499e-09 0 0)
(-7.39217e-09 0 0)
(-5.85976e-09 0 0)
(-3.46027e-09 0 0)
(7.29592e-09 0 0)
(8.16739e-09 0 0)
(6.62223e-09 0 0)
(8.1785e-09 0 0)
(5.83631e-09 0 0)
(7.17731e-09 0 0)
(4.91039e-09 0 0)
(2.73599e-09 0 0)
(-1.57355e-10 0 0)
(-2.37596e-09 0 0)
(-7.92982e-09 0 0)
(-6.47716e-09 0 0)
(-9.81244e-09 0 0)
(-3.42344e-09 0 0)
(-1.00358e-09 0 0)
(-1.35438e-09 0 0)
(9.00206e-09 0 0)
(-5.44304e-09 0 0)
(5.41346e-09 0 0)
(5.98597e-09 0 0)
(-1.7959e-09 0 0)
(1.67603e-09 0 0)
(-1.17165e-08 0 0)
(-6.908e-09 0 0)
(-8.04145e-09 0 0)
(-8.36256e-09 0 0)
(-6.26784e-09 0 0)
(-3.03439e-09 0 0)
(2.19997e-09 0 0)
(5.92449e-09 0 0)
(9.84057e-09 0 0)
(9.41883e-09 0 0)
(1.04881e-08 0 0)
(9.38848e-09 0 0)
(9.1076e-09 0 0)
(5.60614e-09 0 0)
(3.32456e-09 0 0)
(1.72849e-09 0 0)
(-1.94459e-09 0 0)
(-2.56047e-09 0 0)
(-5.30946e-09 0 0)
(-4.01953e-09 0 0)
(-6.3241e-09 0 0)
(-4.61297e-09 0 0)
(-6.94397e-09 0 0)
(-2.16219e-09 0 0)
(6.27763e-09 0 0)
(9.47517e-10 0 0)
(2.83783e-09 0 0)
(3.83849e-10 0 0)
(-1.82569e-09 0 0)
(-3.29807e-09 0 0)
(-6.59391e-09 0 0)
(-3.56483e-09 0 0)
(5.89627e-09 0 0)
(6.84255e-09 0 0)
(5.65714e-09 0 0)
(7.62278e-09 0 0)
(5.91592e-09 0 0)
(6.23096e-09 0 0)
(1.86542e-09 0 0)
(1.00264e-09 0 0)
(-3.62987e-09 0 0)
(-5.05416e-09 0 0)
(-1.13008e-08 0 0)
(-7.11585e-09 0 0)
(1.98421e-09 0 0)
(-2.9079e-09 0 0)
(9.38644e-10 0 0)
(1.01748e-08 0 0)
(8.37112e-09 0 0)
(9.19396e-09 0 0)
(6.37076e-09 0 0)
(2.04948e-09 0 0)
(-1.64864e-09 0 0)
(-6.63014e-09 0 0)
(-1.05356e-08 0 0)
(-9.92904e-09 0 0)
(-1.11684e-08 0 0)
(-4.38369e-09 0 0)
(9.96492e-10 0 0)
(-2.49482e-09 0 0)
(8.00628e-09 0 0)
(7.74549e-09 0 0)
(2.56573e-09 0 0)
(2.12374e-09 0 0)
(-1.65908e-09 0 0)
(-9.12284e-10 0 0)
(-5.61565e-09 0 0)
(-1.48633e-10 0 0)
(4.90098e-09 0 0)
(2.91136e-09 0 0)
(4.5187e-09 0 0)
(4.09748e-09 0 0)
(1.76177e-10 0 0)
(-7.81401e-10 0 0)
(-9.1354e-10 0 0)
(-4.22554e-09 0 0)
(-4.32177e-09 0 0)
(-4.6961e-09 0 0)
(-1.84261e-09 0 0)
(-2.77422e-09 0 0)
(7.91881e-10 0 0)
(1.23487e-09 0 0)
(1.15849e-09 0 0)
(1.79169e-09 0 0)
(-1.43276e-12 0 0)
(-7.41849e-10 0 0)
(-3.74007e-09 0 0)
(-3.59556e-09 0 0)
(-7.58611e-09 0 0)
(-6.43432e-09 0 0)
(-9.94759e-09 0 0)
(-8.5249e-09 0 0)
(-1.29519e-08 0 0)
(-8.41014e-09 0 0)
(-3.87238e-10 0 0)
(-9.28928e-09 0 0)
(-3.82789e-09 0 0)
(-1.01276e-08 0 0)
(-2.57854e-09 0 0)
(1.75391e-09 0 0)
(1.01644e-09 0 0)
(1.20774e-09 0 0)
(-4.93898e-10 0 0)
(1.44035e-10 0 0)
(-4.10142e-09 0 0)
(-4.65254e-09 0 0)
(3.34891e-09 0 0)
(1.12124e-08 0 0)
(3.85205e-09 0 0)
(8.07447e-09 0 0)
(-1.06324e-10 0 0)
(8.93323e-09 0 0)
(1.58752e-08 0 0)
(6.62193e-09 0 0)
(4.24168e-09 0 0)
(-1.44807e-09 0 0)
(-4.81967e-09 0 0)
(-6.99442e-09 0 0)
(-1.51332e-08 0 0)
(-7.52167e-09 0 0)
(-1.11352e-08 0 0)
(-1.09238e-08 0 0)
(-2.40479e-08 0 0)
(-8.74086e-09 0 0)
(-7.14971e-09 0 0)
(-9.36416e-09 0 0)
(-3.94512e-09 0 0)
(-1.26506e-08 0 0)
(1.49865e-08 0 0)
(9.29233e-09 0 0)
(1.10542e-08 0 0)
(7.03658e-09 0 0)
(1.02906e-08 0 0)
(5.61743e-09 0 0)
(5.35865e-09 0 0)
(1.29695e-09 0 0)
(5.17186e-09 0 0)
(1.31943e-08 0 0)
(6.315e-09 0 0)
(1.43776e-08 0 0)
(9.16549e-09 0 0)
(9.15819e-09 0 0)
(1.03292e-08 0 0)
(9.49365e-09 0 0)
(8.66863e-09 0 0)
(7.64429e-09 0 0)
(7.29256e-09 0 0)
(6.95041e-09 0 0)
(4.9879e-09 0 0)
(3.6874e-09 0 0)
(2.61627e-09 0 0)
(3.44595e-10 0 0)
)
;

boundaryField
{
    sides
    {
        type            fixedValue;
        value           uniform (0 0 0);
    }
    empty1
    {
        type            empty;
    }
    empty2
    {
        type            empty;
    }
}


// ************************************************************************* //
