/*--------------------------------*- C++ -*----------------------------------*\
| =========                 |                                                 |
| \\      /  F ield         | OpenFOAM: The Open Source CFD Toolbox           |
|  \\    /   O peration     | Version:  2312                                  |
|   \\  /    A nd           | Website:  www.openfoam.com                      |
|    \\/     M anipulation  |                                                 |
\*---------------------------------------------------------------------------*/
FoamFile
{
    version     2.0;
    format      ascii;
    arch        "LSB;label=32;scalar=64";
    class       surfaceScalarField;
    location    "5e-05";
    object      deltaRho_nei;
}
// * * * * * * * * * * * * * * * * * * * * * * * * * * * * * * * * * * * * * //

dimensions      [1 0 -1 0 0 0 0];

oriented        oriented;

internalField   nonuniform List<scalar> 
799
(
-0
-0
-0
3.05007e-17
-0
-0
-0
-3.05007e-17
-3.05007e-17
-0
-0
-0
-0
-0
3.05007e-17
-0
-0
3.05007e-17
-0
-3.05007e-17
-3.05007e-17
-0
-0
-0
9.1502e-17
-3.05007e-17
-3.05007e-17
3.05007e-17
-0
-0
-0
-0
-0
-0
-0
-0
-0
-0
-0
-0
-0
-0
-0
-0
-0
3.05007e-17
-0
-0
-0
-0
6.10014e-17
-0
-0
-0
-0
3.05007e-17
3.05007e-17
-0
-0
3.05007e-17
3.05007e-17
-0
3.05007e-17
3.05007e-17
3.05007e-17
-0
-0
3.05007e-17
-0
-0
-0
-0
3.05007e-17
-0
-0
6.10014e-17
3.05007e-17
-0
-0
3.05007e-17
3.05007e-17
3.05007e-17
-0
-0
6.10014e-17
3.05007e-17
3.05007e-17
3.05007e-17
-0
-0
-0
-3.05007e-17
3.05007e-17
3.05007e-17
-0
-0
3.05007e-17
-0
-0
3.05007e-17
-0
3.05007e-17
-0
-0
3.05007e-17
3.05007e-17
-0
3.05007e-17
-0
-0
-0
6.10014e-17
3.05007e-17
3.05007e-17
-0
-0
6.10014e-17
3.05007e-17
3.05007e-17
-0
-0
-0
3.05007e-17
-0
3.05007e-17
3.05007e-17
3.05007e-17
-0
-0
-0
-0
-0
-0
-0
-3.05007e-17
-0
-0
3.05007e-17
-0
-0
-0
-0
3.05007e-17
3.05007e-17
-0
-0
-3.05007e-17
-0
-0
3.05007e-17
3.05007e-17
-3.05007e-17
-0
-0
-3.05007e-17
3.05007e-17
-0
-0
-0
-0
-0
-0
3.05007e-17
-3.05007e-17
3.05007e-17
-0
-0
-0
-0
3.05007e-17
-0
-0
-3.05007e-17
-0
-0
-0
-0
-0
3.05007e-17
-3.05007e-17
-0
-0
-0
-0
-0
-0
-3.05007e-17
-0
3.05007e-17
3.05007e-17
-0
-0
-0
-0
-0
3.05007e-17
-0
-0
-0
-0
3.05007e-17
-0
-0
-3.05007e-17
-0
-0
3.05007e-17
3.05007e-17
-0
-0
-3.05007e-17
-0
-0
3.05007e-17
-3.05007e-17
3.05007e-17
-0
-0
-3.05007e-17
-3.05007e-17
-0
3.05007e-17
-3.05007e-17
-3.05007e-17
-0
-0
-0
-0
3.05007e-17
-3.05007e-17
-0
-3.05007e-17
3.05007e-17
-0
-0
-0
-0
-0
-0
-3.05007e-17
3.05007e-17
6.10014e-17
-0
-0
3.05007e-17
-0
3.05007e-17
-6.10014e-17
3.05007e-17
-0
-0
-0
3.05007e-17
3.05007e-17
-0
3.05007e-17
-0
3.05007e-17
-0
-0
-0
3.05007e-17
-3.05007e-17
-0
-0
3.05007e-17
-0
3.05007e-17
3.05007e-17
-0
-0
-0
-0
-0
3.05007e-17
-0
-0
-0
3.05007e-17
-0
-0
-6.10014e-17
-0
-9.1502e-17
3.05007e-17
-0
3.05007e-17
3.05007e-17
3.05007e-17
-0
3.05007e-17
-0
3.05007e-17
3.05007e-17
-0
-0
3.05007e-17
-0
3.05007e-17
-0
-6.10014e-17
3.05007e-17
3.05007e-17
3.05007e-17
3.05007e-17
3.05007e-17
-0
-0
-0
-0
-0
-0
-0
-0
3.05007e-17
3.05007e-17
-0
3.05007e-17
3.05007e-17
-0
-0
-0
3.05007e-17
-0
-0
-0
-0
-0
-0
-0
-0
3.05007e-17
3.05007e-17
-0
3.05007e-17
-0
-0
3.05007e-17
3.05007e-17
-0
-0
-0
3.05007e-17
3.05007e-17
-0
-3.05007e-17
-3.05007e-17
-0
-6.10014e-17
-3.05007e-17
-0
-0
3.05007e-17
3.05007e-17
3.05007e-17
-3.05007e-17
-3.05001e-17
3.04976e-17
3.0494e-17
-4.01107e-12
-9.96318e-12
-1.39203e-11
-1.74393e-11
-1.92933e-11
-1.84128e-11
-1.44018e-11
-5.78055e-12
3.89915e-12
8.44063e-12
1.26514e-11
1.72366e-11
1.43443e-11
1.4751e-11
9.20105e-12
5.92102e-12
-1.74587e-17
2.93495e-12
-4.68351e-12
-4.34166e-12
-2.28314e-12
-1.40906e-12
-3.25465e-13
2.88848e-13
-0
1.71044e-12
3.24366e-12
1.76692e-12
3.86116e-12
-2.2322e-12
4.22388e-12
3.26067e-13
-1.5304e-12
3.42553e-12
-5.21021e-11
-3.5513e-05
3.67038e-05
-3.12068e-09
-5.24462e-06
-0.00047679
0.00231795
-0.0010036
0.00120637
0.000283883
1.85292e-05
2.26728e-06
35.0815
7.62231e-05
1.91631e-09
-1.13686e-08
-0
1.03165e-09
-8.33443e-15
1.03167e-09
7.61828e-09
-2.10716e-08
6.71554e-09
-4.16452e-09
3.99709e-09
1.04106e-09
-6.6004e-09
-2.35042e-09
1.00819e-08
-1.09319e-08
3.31868e-10
2.45973e-10
-6.55918e-12
9.34132e-09
-9.08744e-10
9.6001e-10
-1.51348e-09
1.55578e-09
-0
-6.28765e-09
-1.47014e-09
1.05723e-08
-1.00411e-08
-1.15815e-10
1.01837e-08
-8.33443e-15
-9.07388e-09
-7.65349e-11
7.61836e-09
1.27e-10
-5.71742e-12
-7.02062e-09
-7.90752e-10
1.10315e-08
-9.72804e-09
-3.37935e-10
2.35415e-09
-1.5041e-09
9.61533e-09
-1.58013e-09
1.78432e-09
-2.01466e-09
2.12498e-09
2.99456e-11
-6.45918e-12
-9.41981e-09
1.11101e-08
-8.93883e-09
-6.52526e-10
1.02208e-08
2.60368e-11
-1.15383e-08
1.85049e-09
-1.39388e-09
1.09952e-08
-1.78586e-09
1.8123e-09
-9.07153e-10
8.26784e-10
-5.74242e-12
-8.02503e-09
-7.85601e-11
-8.33441e-15
9.63937e-09
-1.27208e-08
1.27602e-08
-9.77112e-10
9.32648e-10
4.21722e-11
-1.28661e-08
8.29861e-09
2.2787e-09
-8.33443e-15
-1.00754e-08
1.26975e-10
9.22175e-09
-1.46353e-11
-1.17813e-08
1.26204e-08
-0
-2.02062e-09
1.91503e-09
4.45975e-11
1.66689e-14
-7.74776e-09
5.39377e-09
1.98973e-09
-9.9934e-10
8.55746e-10
-1.19913e-09
1.27196e-09
-1.24151e-08
1.24151e-08
-1.12125e-08
1.11844e-08
-1.16411e-08
1.16132e-08
8.33443e-15
-1.98935e-09
1.96e-09
-0
-8.33443e-15
4.72562e-12
-9.57611e-09
7.73489e-09
1.95757e-09
-9.89941e-09
-7.26177e-10
1.13883e-08
-0
-9.36771e-09
5.27556e-09
2.0423e-09
-8.33443e-15
-0
4.35224e-11
-8.73365e-11
7.85937e-11
-9.07813e-09
-2.28904e-10
9.59662e-09
-0
-0
-1.85358e-11
1.56521e-11
-0
-8.33443e-15
-1.66689e-14
-9.93256e-10
9.49733e-10
-2.20015e-09
2.20013e-09
-1.00247e-09
1.0816e-09
-1.11546e-08
1.1209e-08
-2.49533e-11
9.12703e-11
-1.14765e-11
-9.0191e-10
9.59985e-10
-9.55684e-10
7.52416e-10
8.78365e-11
-0
-1.14039e-08
1.14004e-08
-1.00203e-08
1.16682e-13
9.00216e-09
-1.66689e-14
-8.33443e-15
-1.07503e-08
3.14874e-11
1.03858e-08
5.02066e-11
-1.10281e-08
7.68003e-09
1.64674e-09
-0
6.00662e-11
-7.74426e-09
9.65137e-09
5.77576e-11
-1.57362e-10
1.43469e-10
-6.8259e-12
-3.41712e-12
-1.00851e-08
-5.88076e-11
9.45876e-09
-8.33443e-15
3.94218e-12
-2.03684e-09
2.03036e-09
-2.50033e-14
-0
1.46519e-11
-1.26408e-10
6.58503e-11
-1.87716e-09
1.87062e-09
-1.33239e-09
1.28092e-09
-1.193e-08
9.7012e-09
-7.30764e-09
9.5966e-09
2.69119e-11
-1.39525e-08
1.39525e-08
-2.2138e-09
2.19331e-09
-1.08766e-09
1.11023e-09
-1.15441e-08
1.15641e-08
-1.15519e-08
9.42235e-09
-8.12039e-09
1.03007e-08
-1.3114e-08
1.30574e-08
-1.33922e-08
1.33817e-08
-1.36901e-10
1.1174e-10
6.81756e-12
-1.66689e-14
9.14287e-12
4.99066e-11
-7.44125e-09
-2.76727e-10
9.28573e-09
-6.7448e-10
8.81441e-10
8.33443e-15
-8.88258e-10
7.39606e-10
1.29809e-10
-0
1.66689e-14
1.26267e-11
-8.0969e-10
7.57483e-10
-1.21667e-08
1.20267e-08
-9.14226e-09
9.03114e-09
1.05764e-10
-1.10246e-08
1.09461e-08
-5.8081e-10
5.80768e-10
-0
-1.12536e-08
1.12637e-08
-1.02513e-11
2.69452e-11
-6.92718e-09
-8.70779e-10
-6.76437e-10
1.06079e-08
-2.01146e-09
2.10183e-09
-1.45879e-09
1.45485e-09
-0
-7.77019e-11
3.50546e-11
2.92538e-11
-1.90541e-09
1.8926e-09
-1.40118e-10
2.3028e-11
-1.97273e-09
1.80578e-09
-1.08619e-08
1.08333e-08
-1.69522e-11
-1.02149e-09
9.80512e-10
1.66689e-14
6.57336e-11
-8.33443e-15
-7.13685e-09
-7.5168e-11
9.27889e-09
-6.81756e-12
2.37448e-11
-1.96533e-09
1.97809e-09
-0
-5.37571e-12
2.39031e-11
-0
-0
-9.11554e-09
5.28292e-09
1.88585e-09
-1.07509e-08
8.54436e-09
1.06178e-09
-0
3.94469e-11
-3.62298e-11
5.80576e-11
8.33443e-15
-0
-0
6.40418e-11
-7.19315e-09
9.16445e-09
-3.13291e-11
-7.09974e-09
8.99875e-09
-8.33443e-15
4.70895e-12
-1.36685e-11
1.4927e-11
-0
-1.05133e-08
1.04578e-08
1.85608e-11
-4.09887e-11
1.53687e-11
5.71658e-11
-1.02706e-09
1.01653e-09
1.99193e-11
-6.99875e-10
-1.80857e-12
5.70183e-10
3.793e-11
-1.13219e-08
1.13284e-08
-1.82436e-09
1.78068e-09
-0
8.74282e-12
-7.99422e-10
8.07056e-10
8.33443e-15
-1.03515e-09
1.01464e-09
4.43308e-11
6.84257e-12
-7.33801e-09
1.02355e-08
2.85037e-11
-7.48015e-11
5.89578e-11
-1.17728e-08
1.17392e-08
-0
3.40878e-12
-1.13185e-08
9.06728e-09
2.86763e-10
-2.50033e-14
-9.89788e-09
1.17555e-08
1.64188e-12
-5.64241e-11
4.44308e-11
-1.0601e-08
1.0612e-08
-0
-1.7694e-11
1.17649e-10
-3.19513e-09
3.18326e-09
-5.17735e-11
-1.18341e-08
9.09559e-09
1.76559e-09
1.20232e-10
-1.35801e-08
1.35502e-08
-1.13014e-08
9.49318e-09
-9.26522e-09
1.03872e-10
1.02254e-08
6.64254e-12
-3.64465e-11
-9.29937e-09
6.63182e-09
2.23191e-09
1.70856e-11
-1.00066e-08
1.00212e-08
-2.03182e-09
-0
1.20299e-09
-2.1963e-09
2.27874e-09
4.3439e-11
-8.92701e-10
8.6433e-10
2.89788e-11
1.70689e-11
-5.33237e-11
3.64381e-11
1.13348e-12
-1.02513e-11
)
;

boundaryField
{
    sides
    {
        type            calculated;
        value           uniform -0;
    }
    empty1
    {
        type            empty;
        value           nonuniform List<scalar> 0();
    }
    empty2
    {
        type            empty;
        value           nonuniform List<scalar> 0();
    }
}


// ************************************************************************* //
