/*--------------------------------*- C++ -*----------------------------------*\
| =========                 |                                                 |
| \\      /  F ield         | OpenFOAM: The Open Source CFD Toolbox           |
|  \\    /   O peration     | Version:  2312                                  |
|   \\  /    A nd           | Website:  www.openfoam.com                      |
|    \\/     M anipulation  |                                                 |
\*---------------------------------------------------------------------------*/
FoamFile
{
    version     2.0;
    format      ascii;
    arch        "LSB;label=32;scalar=64";
    class       surfaceScalarField;
    location    "5e-05";
    object      deltaRho_own;
}
// * * * * * * * * * * * * * * * * * * * * * * * * * * * * * * * * * * * * * //

dimensions      [1 0 -1 0 0 0 0];

oriented        oriented;

internalField   nonuniform List<scalar> 
799
(
-0
-0
-0
-0
-6.10014e-17
-0
-0
-0
3.05007e-17
3.05007e-17
-0
-0
-0
-0
-0
-3.05007e-17
-0
-0
-3.05007e-17
-0
3.05007e-17
-0
-0
-0
-0
-0
3.05007e-17
-3.05007e-17
-3.05007e-17
-0
-0
-0
-0
-0
-0
-0
-0
-0
-0
-0
-0
-0
-0
-0
-0
-0
-3.05007e-17
-0
-0
-0
-0
-3.05007e-17
-0
-6.10014e-17
-0
-0
-3.05007e-17
-0
-0
-3.05007e-17
-3.05007e-17
-0
-3.05007e-17
-3.05007e-17
-3.05007e-17
-3.05007e-17
-0
-0
-3.05007e-17
-0
-0
-0
-0
-3.05007e-17
-0
-0
-3.05007e-17
-6.10014e-17
-0
-0
-3.05007e-17
-3.05007e-17
-3.05007e-17
-0
-0
-3.05007e-17
-3.05007e-17
-3.05007e-17
-3.05007e-17
-0
-0
-0
3.05007e-17
-3.05007e-17
-3.05007e-17
-0
-0
-3.05007e-17
-0
-0
-3.05007e-17
-0
-3.05007e-17
-0
-6.10014e-17
-3.05007e-17
-0
-0
-0
-0
-0
-0
-3.05007e-17
-3.05007e-17
-3.05007e-17
-0
-0
-3.05007e-17
-3.05007e-17
3.05007e-17
-0
-0
-0
-3.05007e-17
-0
-3.05007e-17
-3.05007e-17
-0
-0
-0
-0
-0
-0
-0
-0
3.05007e-17
-0
-3.05007e-17
-0
-0
-0
-0
-0
-6.10014e-17
-6.10014e-17
-0
-0
3.05007e-17
-0
-0
-3.05007e-17
-0
-0
-0
-0
-3.05007e-17
-3.05007e-17
-0
-0
-0
-0
-0
-0
-9.1502e-17
3.05007e-17
-3.05007e-17
-0
-0
-0
-0
-3.05007e-17
-0
-0
-0
-0
-0
-0
-0
-0
-3.05007e-17
3.05007e-17
-0
-0
-0
-0
-0
-0
3.05007e-17
-0
-3.05007e-17
6.10014e-17
-0
-0
-0
-0
-3.05007e-17
-0
-0
-0
-0
-0
-0
-0
3.05007e-17
-0
-0
-3.05007e-17
3.05007e-17
-3.05007e-17
-0
-0
3.05007e-17
-0
3.05007e-17
-3.05007e-17
-0
-6.10014e-17
-0
-0
3.05007e-17
-0
-0
-3.05007e-17
3.05007e-17
-0
-0
-0
-0
-0
-3.05007e-17
3.05007e-17
-0
-3.05007e-17
-6.10014e-17
-0
-0
-0
-0
6.10014e-17
-0
-0
-3.05007e-17
-0
-0
-0
-3.05007e-17
-0
-3.05007e-17
3.05007e-17
-3.05007e-17
3.05007e-17
-0
-0
-3.05007e-17
-0
-3.05007e-17
-3.05007e-17
-0
-3.05007e-17
-0
-0
-0
-3.05007e-17
3.05007e-17
-0
-6.10014e-17
-3.05007e-17
-0
-3.05007e-17
-0
-0
-0
-0
-3.05007e-17
-0
-3.05007e-17
-0
-0
-3.05007e-17
-3.05007e-17
-0
-0
-0
-0
-0
-3.05007e-17
-0
-3.05007e-17
-3.05007e-17
-3.05007e-17
-0
-3.05007e-17
-0
-3.05007e-17
3.05007e-17
-0
-0
-3.05007e-17
-0
-3.05007e-17
-0
3.05007e-17
-3.05007e-17
-0
-3.05007e-17
-0
-3.05007e-17
-0
-6.10014e-17
-0
-0
-0
-0
-0
-3.05007e-17
-0
-3.05007e-17
-0
-3.05007e-17
-0
-0
-0
-0
-3.05007e-17
-0
-0
-0
-0
-3.05007e-17
-0
-0
-3.05007e-17
-3.05007e-17
-3.05007e-17
-0
-0
-0
-0
-3.05007e-17
-3.05007e-17
-0
-0
-0
3.05007e-17
-3.05007e-17
3.05007e-17
9.1502e-17
-6.10014e-17
6.10014e-17
1.22003e-16
-1.22003e-16
6.10014e-17
-6.10014e-17
3.05007e-17
-1.22003e-16
6.10014e-17
3.05001e-17
-6.09952e-17
-3.0494e-17
-6.09733e-17
1.20274e-11
1.38403e-11
1.79372e-11
2.04256e-11
1.9971e-11
1.59455e-11
8.88207e-12
-5.68556e-12
-1.14298e-11
-9.77427e-12
-1.92206e-11
-1.9329e-11
-1.4751e-11
-1.48136e-11
-5.92102e-12
-3.09306e-12
-1.48543e-17
2.3843e-12
3.73276e-12
2.36212e-12
1.161e-12
3.34158e-13
-2.88848e-13
-8.90839e-13
-0
-2.32496e-12
-1.76692e-12
-1.52443e-12
-3.36339e-13
-5.07259e-13
-3.26067e-13
8.70635e-12
5.42347e-12
2.20619e-11
2.036e-11
-1.27549e-09
0.000233051
0.000551557
0.00089041
0.000732345
-0.000271454
-3.92085e-07
0.00390627
0.00412229
0.0115797
34.8739
4.34471e-07
-2.30219e-08
-1.05278e-09
-0
-1.03159e-08
8.33443e-15
2.06331e-09
-0
-2.91749e-09
-0
-5.94862e-09
1.66689e-14
-0
-4.53788e-09
-8.33441e-15
9.12176e-09
-1.1062e-08
3.24975e-10
-8.15355e-11
2.86987e-10
9.07414e-09
-9.35148e-10
9.59993e-10
-1.51346e-09
1.49981e-09
-1.11581e-09
-6.63804e-09
-4.95064e-12
1.06067e-08
-1.01207e-08
3.72381e-11
1.01983e-08
-5.17735e-11
-9.0739e-09
1.38703e-09
6.22323e-09
-6.8509e-11
-2.15175e-09
-5.61201e-09
-3.40877e-12
1.10948e-08
-9.93482e-09
-1.62179e-10
2.35415e-09
-1.57122e-09
9.65035e-09
-1.58015e-09
1.73714e-09
-2.01466e-09
2.23529e-09
-0
-1.64063e-09
-7.77528e-09
1.11297e-08
-9.5932e-09
8.68445e-12
1.02457e-08
-1.80107e-11
-1.15248e-08
1.85047e-09
-1.38143e-09
1.10246e-08
-1.78542e-09
1.8082e-09
-9.07169e-10
7.94196e-10
-1.93029e-09
-6.18597e-09
-8.33441e-15
5.73941e-10
9.01926e-09
-1.27208e-08
1.28064e-08
-9.53167e-10
9.32648e-10
-2.0536e-11
-1.28273e-08
1.05873e-08
-9.95964e-12
1.66689e-14
-9.98264e-09
6.69128e-10
8.57229e-09
-8.56546e-10
-1.09094e-08
1.26355e-08
-3.04207e-11
-1.96782e-09
1.91507e-09
-8.3511e-11
-1.63627e-09
-5.99236e-09
7.34233e-09
4.0297e-11
-1.02692e-09
8.55762e-10
-1.24189e-09
1.25722e-09
-1.24004e-08
1.24151e-08
-1.12126e-08
1.12126e-08
-1.16541e-08
1.16108e-08
-1.27517e-11
-1.97466e-09
1.96e-09
-1.46436e-11
-0
-2.20014e-09
-7.37125e-09
9.80159e-09
-1.09073e-10
-1.06693e-08
6.95673e-11
1.13883e-08
-1.21599e-11
-9.36767e-09
7.31786e-09
7.50099e-12
-7.46765e-12
-2.50033e-14
3.33377e-14
-3.50129e-11
6.97925e-11
-9.36772e-09
6.07078e-11
9.59661e-09
-8.33443e-15
-0
-1.70772e-11
1.56187e-11
-1.46686e-12
-0
1.66689e-14
-9.56567e-10
9.26764e-10
-2.19331e-09
2.20698e-09
-1.03174e-09
1.06103e-09
-1.11183e-08
1.1209e-08
-3.08541e-11
9.1187e-11
-2.48449e-11
-8.55321e-10
9.60001e-10
-9.59993e-10
8.31109e-10
4.86064e-11
-2.49366e-11
-1.14141e-08
1.14005e-08
-1.00168e-08
1.01456e-09
7.99779e-09
8.33443e-15
8.33443e-15
-1.07479e-08
3.59696e-10
1.00552e-08
1.66689e-14
-1.09778e-08
9.35404e-09
-8.33443e-15
-2.73036e-11
-1.97804e-09
-5.69996e-09
9.71001e-09
-6.47668e-11
-9.25455e-11
1.43302e-10
-6.83423e-12
6.8259e-12
-1.00886e-08
5.87592e-10
8.85109e-09
-3.87801e-11
8.33443e-15
-2.05269e-09
2.07647e-09
-2.63201e-11
1.66689e-14
1.66689e-14
-1.11698e-10
6.83256e-11
-1.84727e-09
1.8706e-09
-1.36472e-09
1.27088e-09
-1.192e-08
9.70251e-09
-7.30896e-09
9.59661e-09
-0
-1.39256e-08
1.39525e-08
-2.20697e-09
2.20014e-09
-1.09324e-09
1.11249e-09
-1.1544e-08
1.15507e-08
-1.16058e-08
9.49289e-09
-8.11046e-09
1.03008e-08
-1.30673e-08
1.30008e-08
-1.33922e-08
1.33922e-08
-1.36901e-10
1.09056e-10
-9.66794e-13
1.66689e-14
8.33443e-15
-1.47354e-09
-6.20207e-09
1.67272e-11
9.2857e-09
-6.73038e-10
8.79949e-10
-1.29825e-10
-7.58433e-10
8.88258e-10
-1.88441e-11
-0
-8.33443e-15
-1.66689e-14
-7.97046e-10
8.0969e-10
-1.21667e-08
1.20623e-08
-9.22996e-09
9.14224e-09
-1.11098e-10
-1.09189e-08
1.10247e-08
-6.59312e-10
5.80793e-10
1.66689e-14
-1.12535e-08
1.12536e-08
1.66689e-14
1.0243e-11
-8.45253e-09
7.97686e-11
-8.49943e-11
1.06078e-08
-2.05667e-09
2.10186e-09
-1.41358e-09
1.45879e-09
-3.91718e-12
-5.80826e-11
3.50463e-11
-1.61938e-11
-1.87025e-09
1.88678e-09
-1.40102e-10
1.12665e-10
-1.97212e-09
1.80574e-09
-1.09271e-08
1.08048e-08
-1.0243e-11
-1.00086e-09
9.80487e-10
-6.8509e-12
5.12317e-11
-1.96361e-09
-5.27489e-09
3.40877e-11
9.27889e-09
-6.84257e-12
1.70606e-11
-1.968e-09
1.98741e-09
-0
-2.39115e-11
2.87538e-11
8.33443e-15
-0
-9.0739e-09
7.13271e-09
-1.93025e-11
-1.07445e-08
9.64491e-09
8.33443e-15
-4.51226e-11
-0
-1.86108e-11
7.99355e-11
-8.33443e-15
-8.33443e-15
-0
-1.97124e-09
-5.15956e-09
9.16445e-09
-1.89433e-09
-5.23445e-09
9.01187e-09
-8.33443e-15
-3.40878e-12
-1.92275e-11
1.70856e-11
-2.17529e-12
-1.04883e-08
1.04598e-08
-4.07637e-11
-1.93359e-12
3.75716e-11
-8.55112e-12
-9.98473e-10
1.02959e-09
-1.86441e-11
-7.3168e-10
1.26892e-10
5.17493e-10
1.67272e-11
-1.13386e-08
1.13219e-08
-1.81782e-09
1.8107e-09
-2.64201e-12
-8.33443e-15
-7.90687e-10
8.1309e-10
-6.0758e-12
-1.03514e-09
1.02148e-09
2.05277e-11
-2.84933e-09
-4.49594e-09
1.02529e-08
-3.40878e-12
-2.61701e-11
4.47475e-11
-1.17754e-08
1.17728e-08
-4.04553e-11
-8.54029e-11
-1.12365e-08
9.35403e-09
1.72939e-11
-1.70997e-10
-9.74008e-09
1.17893e-08
-3.783e-11
-5.64324e-11
4.60561e-11
-1.05942e-08
1.06147e-08
-1.29267e-11
-2.39198e-11
8.13857e-11
-3.15867e-09
3.18326e-09
-9.57393e-10
-1.09022e-08
1.09668e-08
1.14765e-11
-1.06564e-10
-1.34735e-08
1.35801e-08
-1.13313e-08
9.45651e-09
-9.22857e-09
8.78021e-10
9.45796e-09
-6.65087e-12
-1.81427e-09
-7.52856e-09
8.83815e-09
5.87077e-11
-1.61271e-11
-1.00066e-08
1.00066e-08
-2.03179e-09
8.78965e-10
2.90397e-10
-2.20317e-09
2.32012e-09
8.33443e-15
-9.16504e-10
9.76062e-10
3.41712e-12
1.18932e-11
-5.46405e-11
3.89134e-11
1.25433e-11
-2.27863e-11
)
;

boundaryField
{
    sides
    {
        type            calculated;
        value           uniform -0;
    }
    empty1
    {
        type            empty;
        value           nonuniform List<scalar> 0();
    }
    empty2
    {
        type            empty;
        value           nonuniform List<scalar> 0();
    }
}


// ************************************************************************* //
