/*--------------------------------*- C++ -*----------------------------------*\
| =========                 |                                                 |
| \\      /  F ield         | OpenFOAM: The Open Source CFD Toolbox           |
|  \\    /   O peration     | Version:  2312                                  |
|   \\  /    A nd           | Website:  www.openfoam.com                      |
|    \\/     M anipulation  |                                                 |
\*---------------------------------------------------------------------------*/
FoamFile
{
    version     2.0;
    format      ascii;
    arch        "LSB;label=32;scalar=64";
    class       volScalarField;
    location    "5e-05";
    object      minKappa;
}
// * * * * * * * * * * * * * * * * * * * * * * * * * * * * * * * * * * * * * //

dimensions      [0 0 0 0 0 0 0];

internalField   nonuniform List<scalar> 
800
(
4.70291e-12
1.98017e-12
1.98017e-12
2.47522e-12
2.47522e-12
6.18804e-12
6.18804e-12
2.47522e-13
2.47522e-13
8.66326e-12
4.70291e-12
4.70291e-12
5.44548e-12
5.94052e-12
6.18804e-12
4.20787e-12
7.42565e-13
7.42565e-13
6.93061e-12
3.4653e-12
2.2277e-12
2.2277e-12
3.71283e-12
8.41574e-12
8.41574e-12
1.63364e-11
1.63364e-11
1.73265e-11
2.47522e-12
2.47522e-12
4.95043e-13
4.95043e-13
7.67317e-12
9.90087e-12
8.66326e-12
8.66326e-12
3.04452e-11
4.45539e-12
4.45539e-12
2.07918e-11
4.70291e-12
1.98017e-12
1.98017e-12
9.90087e-12
6.68309e-12
6.68309e-12
1.73265e-12
1.73265e-12
6.93061e-12
1.28711e-11
5.19796e-12
1.23761e-12
1.23761e-12
1.23761e-12
1.23761e-12
5.94052e-12
5.94052e-12
1.48513e-12
1.48513e-12
0
0
1.98017e-12
1.98017e-12
2.47522e-12
2.47522e-12
7.42565e-12
1.50988e-11
1.23761e-12
1.23761e-12
5.44548e-12
8.66326e-12
4.20787e-12
4.20787e-12
9.1583e-12
1.6584e-11
1.21286e-11
2.47522e-13
2.47522e-13
2.47522e-13
2.97026e-12
2.97026e-12
2.2277e-12
7.42565e-13
7.42565e-13
9.90087e-13
9.90087e-13
2.47522e-13
2.47522e-13
1.1881e-11
2.52472e-11
2.30195e-11
1.28711e-11
9.90087e-13
9.90087e-13
7.42565e-13
7.42565e-13
3.4653e-12
3.4653e-12
8.16822e-12
1.48513e-12
1.48513e-12
1.73265e-12
1.73265e-12
7.42565e-13
7.42565e-13
8.91078e-12
7.67317e-12
7.67317e-12
1.31187e-11
1.7079e-11
4.70291e-12
4.70291e-12
1.23761e-11
4.95043e-13
4.95043e-13
3.4653e-12
7.42565e-12
2.72274e-12
4.95043e-13
4.95043e-13
1.01484e-11
1.36137e-11
2.97026e-12
2.97026e-12
2.15344e-11
1.78216e-11
1.03959e-11
1.03959e-11
1.1881e-11
6.18804e-12
6.18804e-12
6.93061e-12
1.58414e-11
1.58414e-11
1.23761e-11
1.73265e-12
1.73265e-12
1.11385e-11
9.65335e-12
9.65335e-12
7.17813e-12
7.17813e-12
7.67317e-12
7.67317e-12
1.73265e-12
1.73265e-12
2.47522e-12
2.2277e-12
2.2277e-12
7.9207e-12
1.85641e-11
2.25245e-11
3.71283e-12
3.71283e-12
1.28711e-11
9.90087e-13
9.90087e-13
1.1386e-11
2.47522e-12
2.47522e-12
8.91078e-12
8.91078e-12
2.97026e-12
2.97026e-12
1.11385e-11
1.11385e-11
1.46038e-11
5.693e-12
4.70291e-12
4.70291e-12
1.28711e-11
1.36137e-11
2.82175e-11
2.82175e-11
4.75242e-11
1.6584e-11
8.66326e-12
6.68309e-12
9.90087e-13
9.90087e-13
9.90087e-13
6.18804e-12
3.96035e-12
3.96035e-12
2.62373e-11
3.96035e-12
3.96035e-12
8.91078e-12
4.45539e-12
4.45539e-12
7.42565e-12
3.4653e-12
3.4653e-12
4.45539e-12
8.91078e-12
5.693e-12
5.693e-12
1.01484e-11
8.16822e-12
8.16822e-12
5.44548e-12
5.44548e-12
4.95043e-13
0
0
9.90087e-13
7.9207e-12
7.9207e-12
1.48513e-12
1.48513e-12
1.33662e-11
7.42565e-12
7.42565e-12
1.36137e-11
6.43557e-12
2.2277e-12
1.73265e-12
1.73265e-12
3.4653e-12
3.4653e-12
1.01484e-11
1.01484e-11
5.693e-12
5.693e-12
1.16335e-11
2.64848e-11
4.0346e-11
3.39105e-11
2.59898e-11
1.80691e-11
8.91078e-12
1.98017e-12
1.98017e-12
2.72274e-12
4.95043e-12
0
0
2.2277e-12
4.95043e-12
2.47522e-13
2.47522e-13
3.21778e-12
1.03959e-11
1.28711e-11
1.98017e-12
1.98017e-12
2.97026e-12
1.1881e-11
3.21778e-12
2.47522e-13
2.47522e-13
8.16822e-12
5.693e-12
3.21778e-12
9.90087e-13
9.90087e-13
7.42565e-13
4.95043e-13
4.95043e-13
4.70291e-12
2.54947e-11
2.35146e-11
1.1881e-11
1.1881e-11
5.19796e-12
5.19796e-12
4.20787e-12
4.95043e-13
4.95043e-13
2.72274e-12
7.67317e-12
7.67317e-12
5.19796e-12
5.19796e-12
6.43557e-12
5.94052e-12
5.94052e-12
6.68309e-12
5.19796e-12
2.47522e-13
2.47522e-13
4.95043e-13
1.6584e-11
1.63364e-11
2.47522e-12
2.47522e-12
2.00493e-11
1.21286e-11
0
0
2.97026e-12
5.19796e-12
7.9207e-12
7.42565e-13
7.42565e-13
6.43557e-12
1.98017e-12
1.98017e-12
2.47522e-13
2.47522e-13
4.95043e-12
4.95043e-13
0
0
0
3.71283e-12
7.42565e-13
7.42565e-13
5.44548e-12
9.65335e-12
1.06434e-11
1.06434e-11
7.67317e-12
7.67317e-12
4.20787e-12
4.20787e-12
4.20787e-12
4.20787e-12
3.4653e-12
3.4653e-12
1.48513e-12
1.48513e-12
7.42565e-13
0
0
7.42565e-12
2.47522e-13
2.47522e-13
7.42565e-12
7.42565e-12
9.90087e-13
9.90087e-13
9.90087e-13
9.90087e-13
5.94052e-12
4.95043e-12
4.95043e-12
9.90087e-13
0
0
8.66326e-12
1.06434e-11
7.67317e-12
7.67317e-12
4.20787e-11
4.93806e-10
4.33312e-09
3.5511e-08
2.72449e-07
1.8537e-06
1.11435e-05
6.24858e-05
0.000336936
0.00175312
0.00878348
0.0419032
0.180834
0.633372
1
1
1
1
1
1
1
1
1
1
1
1
1
1
1
1
1
1
1
1
1
1
1
1
1
1
1
1
1
1
1
1
1
1
1
1
1
1
1
1
1
1
1
1
1
1
1
1.26527e-06
1.26527e-06
9.97428e-06
7.79619e-06
6.27298e-06
4.84859e-06
3.76275e-06
2.79289e-06
2.02431e-06
1.4074e-06
9.45286e-07
6.12108e-07
3.67935e-07
1.97238e-07
8.05251e-08
1.336e-08
1.336e-08
2.27133e-08
4.40517e-08
4.85625e-08
5.12552e-08
5.17429e-08
5.17429e-08
5.53742e-08
5.64309e-08
5.51929e-08
5.42845e-08
5.42845e-08
5.28482e-08
5.19935e-08
5.15266e-08
4.85611e-08
4.47518e-08
4.36274e-08
4.16726e-08
4.0598e-08
3.69855e-08
3.69229e-08
3.65918e-08
3.65918e-08
3.33645e-08
2.76973e-08
2.58696e-08
2.50309e-08
1.80636e-08
1.54162e-08
1.16879e-08
1.07619e-08
8.62785e-09
7.14588e-09
5.52031e-09
5.52031e-09
5.84182e-09
5.44485e-09
1.64665e-09
1.07382e-09
1.07382e-09
2.34888e-09
5.02131e-09
4.87102e-09
4.87102e-09
7.23546e-09
1.22741e-08
1.66958e-08
1.66449e-08
1.56096e-08
1.56096e-08
1.58228e-08
1.57625e-08
1.57625e-08
1.60772e-08
1.76196e-08
1.85991e-08
1.89671e-08
2.39479e-08
2.20024e-08
2.15071e-08
2.05313e-08
2.05313e-08
2.54557e-08
2.38805e-08
2.38805e-08
2.4283e-08
2.56026e-08
2.41807e-08
2.27606e-08
2.27606e-08
2.53878e-08
2.37699e-08
2.2846e-08
2.21642e-08
2.12847e-08
2.12847e-08
2.16011e-08
2.4135e-08
2.20461e-08
2.14778e-08
2.05603e-08
1.76782e-08
1.45234e-08
1.45234e-08
1.48425e-08
1.48425e-08
1.71356e-08
1.71356e-08
2.07005e-08
2.02997e-08
1.85799e-08
1.58983e-08
1.28624e-08
9.65348e-09
6.95005e-09
6.95005e-09
8.94969e-09
7.50841e-09
7.50841e-09
1.0259e-08
1.15726e-08
1.1962e-08
1.31957e-08
1.4148e-08
1.57317e-08
1.71107e-08
1.7504e-08
1.70283e-08
1.51286e-08
1.32056e-08
1.32056e-08
1.62909e-08
1.67216e-08
1.56673e-08
1.45015e-08
1.31525e-08
1.18231e-08
1.05395e-08
9.18464e-09
7.49815e-09
5.0447e-09
1.97246e-09
3.9021e-10
3.9021e-10
1.86995e-09
4.16078e-09
6.43351e-10
6.43351e-10
3.15318e-09
6.05511e-09
8.27741e-09
9.76186e-09
1.1211e-08
1.22611e-08
1.1482e-08
1.1482e-08
1.19199e-08
1.02047e-08
9.10323e-09
7.35491e-09
2.71692e-09
2.103e-09
2.103e-09
2.50404e-09
7.19247e-12
7.19247e-12
5.5638e-11
1.15914e-09
1.38723e-10
1.38723e-10
5.76386e-10
1.14021e-09
3.05843e-09
4.78859e-09
4.78859e-09
6.80147e-09
7.66555e-09
7.66555e-09
8.32908e-09
8.79155e-09
8.28423e-09
5.05653e-09
5.05653e-09
5.75708e-09
6.35339e-09
6.79031e-09
6.80858e-09
7.35554e-09
8.03857e-09
9.3967e-09
1.05128e-08
1.14372e-08
1.19041e-08
1.19041e-08
1.20146e-08
1.23935e-08
6.44038e-09
6.44038e-09
8.23419e-09
8.68234e-09
9.74177e-09
1.3807e-09
1.35061e-09
1.34176e-09
1.14475e-09
7.27096e-10
2.81166e-10
2.81166e-10
6.77164e-10
6.77164e-10
2.80456e-09
4.27132e-09
7.87514e-09
8.23518e-09
1.0075e-08
1.0075e-08
1.28424e-08
1.19487e-08
1.10874e-08
9.33188e-09
7.38001e-09
5.98294e-09
5.98294e-09
6.20228e-09
8.07681e-09
9.4258e-09
8.20697e-09
7.5938e-09
6.99765e-09
6.99765e-09
6.47566e-09
5.38704e-09
4.30429e-09
3.373e-09
2.28446e-09
2.28446e-09
1.56803e-09
1.56803e-09
6.11944e-09
6.11944e-09
9.65347e-09
8.63869e-09
8.63869e-09
1.07573e-08
8.98855e-09
8.10247e-09
8.10247e-09
8.91259e-09
1.20846e-08
1.14098e-08
1.09966e-08
1.09966e-08
1.83814e-08
1.83814e-08
1.99299e-08
1.98607e-08
1.9396e-08
1.9396e-08
1.92673e-08
1.77902e-08
1.68452e-08
1.58001e-08
1.52367e-08
1.52367e-08
1.45692e-08
1.12164e-08
8.70722e-09
8.08569e-09
7.25477e-09
6.42814e-09
5.47426e-09
4.63415e-09
3.13962e-09
1.33481e-09
2.89268e-10
2.89268e-10
7.45201e-10
1.52926e-09
2.73057e-09
5.85646e-09
6.27444e-09
7.42374e-09
8.17076e-09
9.0327e-09
9.18225e-09
9.18225e-09
9.16199e-09
9.16199e-09
8.47434e-09
8.47434e-09
1.23438e-08
1.08555e-08
1.08555e-08
9.69737e-09
6.8223e-09
4.7637e-09
3.41028e-09
1.3673e-09
1.3673e-09
1.49528e-09
4.3997e-09
6.41705e-09
7.33942e-09
1.84358e-09
1.84358e-09
1.39881e-09
1.39881e-09
2.52041e-09
5.68367e-10
5.68367e-10
6.99153e-10
1.45609e-09
2.5901e-09
1.99065e-09
1.99065e-09
4.26941e-09
5.84207e-09
7.60959e-09
9.38818e-09
1.07488e-08
1.07488e-08
1.22149e-08
1.37087e-08
1.45715e-08
1.59349e-08
1.73611e-08
1.55711e-08
1.50734e-08
1.4568e-08
1.4568e-08
1.64315e-08
1.79117e-08
1.80268e-08
1.71224e-08
1.61448e-08
1.55532e-08
1.49018e-08
1.46067e-08
1.37163e-08
1.27656e-08
1.27656e-08
1.28601e-08
1.28628e-08
1.28628e-08
9.97409e-09
9.97409e-09
1.09082e-08
1.1263e-08
7.24461e-09
6.70607e-09
5.789e-09
3.01165e-09
1.03009e-10
1.03009e-10
6.579e-10
1.35168e-09
2.45361e-09
4.2504e-09
6.72303e-09
8.42547e-09
9.37396e-09
1.08122e-08
1.1218e-08
1.1218e-08
1.15902e-08
1.00149e-08
8.82618e-09
7.53601e-09
7.05496e-09
6.67987e-11
6.67987e-11
1.03894e-09
2.06324e-09
2.83754e-09
7.59177e-09
5.9688e-09
3.86647e-09
3.86647e-09
4.66426e-09
7.5381e-09
8.29857e-09
8.29857e-09
8.41986e-09
8.42515e-09
9.24905e-09
9.828e-09
9.90794e-09
9.29493e-09
8.95159e-09
8.95159e-09
9.56055e-09
1.0825e-08
9.99631e-09
7.95896e-09
6.22037e-09
4.15797e-09
2.22717e-09
2.22717e-09
)
;

boundaryField
{
    sides
    {
        type            calculated;
        value           uniform 0;
    }
    empty1
    {
        type            empty;
    }
    empty2
    {
        type            empty;
    }
}


// ************************************************************************* //
