/*--------------------------------*- C++ -*----------------------------------*\
| =========                 |                                                 |
| \\      /  F ield         | OpenFOAM: The Open Source CFD Toolbox           |
|  \\    /   O peration     | Version:  2312                                  |
|   \\  /    A nd           | Website:  www.openfoam.com                      |
|    \\/     M anipulation  |                                                 |
\*---------------------------------------------------------------------------*/
FoamFile
{
    version     2.0;
    format      ascii;
    arch        "LSB;label=32;scalar=64";
    class       surfaceScalarField;
    location    "5e-05";
    object      phi;
}
// * * * * * * * * * * * * * * * * * * * * * * * * * * * * * * * * * * * * * //

dimensions      [1 0 -1 0 0 0 0];

oriented        oriented;

internalField   nonuniform List<scalar> 
799
(
5.27356e-16
2.22045e-16
-4.996e-16
2.77556e-16
1.13798e-15
-6.93889e-16
-2.35922e-15
-2.77556e-17
9.71445e-16
1.05471e-15
5.27356e-16
6.10623e-16
-6.66134e-16
-2.08167e-15
-6.93889e-16
-4.71845e-16
-8.32667e-17
7.77156e-16
-9.15934e-16
3.88578e-16
-2.498e-16
-4.16334e-16
3.91354e-15
9.4369e-16
-2.498e-15
-1.83187e-15
2.13718e-15
1.94289e-15
-2.77556e-16
-3.33067e-16
5.55112e-17
-8.60423e-16
-1.44329e-15
1.11022e-15
9.71445e-16
-3.85803e-15
-3.41394e-15
-4.996e-16
3.16414e-15
2.33147e-15
5.27356e-16
2.22045e-16
-1.69309e-15
-1.11022e-15
7.49401e-16
1.13798e-15
-1.94289e-16
-7.77156e-16
1.66533e-15
1.44329e-15
-5.82867e-16
-1.38778e-16
-5.82867e-16
-1.38778e-16
1.36002e-15
-6.66134e-16
-1.4988e-15
-1.66533e-16
3.88578e-16
0
-4.16334e-16
2.22045e-16
1.02696e-15
2.77556e-16
8.32667e-16
1.69309e-15
-1.80411e-15
1.38778e-16
6.10623e-16
-2.10942e-15
-9.71445e-16
4.71845e-16
-1.02696e-15
-1.85962e-15
3.71925e-15
1.36002e-15
2.77556e-17
2.77556e-17
-1.33227e-15
3.33067e-16
5.55112e-16
2.498e-16
8.32667e-17
-1.36002e-15
1.11022e-16
3.05311e-16
-2.77556e-17
-1.33227e-15
-3.33067e-15
2.83107e-15
2.58127e-15
-1.44329e-15
1.11022e-16
3.05311e-16
-8.32667e-17
6.93889e-16
3.88578e-16
-9.15934e-16
-2.05391e-15
-1.66533e-16
9.71445e-16
1.94289e-16
-4.44089e-16
-8.32667e-17
9.99201e-16
1.13798e-15
8.60423e-16
-1.47105e-15
-1.91513e-15
-2.63678e-15
-5.27356e-16
3.60822e-15
1.38778e-15
5.55112e-17
-3.88578e-16
-8.32667e-16
1.05471e-15
3.05311e-16
5.55112e-17
-1.13798e-15
-3.08087e-15
1.52656e-15
3.33067e-16
-2.41474e-15
2.72005e-15
1.9984e-15
1.16573e-15
-1.33227e-15
-3.94129e-15
-6.93889e-16
7.77156e-16
2.91434e-15
-1.77636e-15
-1.94289e-15
1.38778e-15
-1.94289e-16
2.35922e-15
1.249e-15
-1.08247e-15
1.44329e-15
8.04912e-16
-1.66533e-15
-8.60423e-16
1.83187e-15
1.94289e-16
-2.30371e-15
-2.77556e-16
2.498e-16
8.88178e-16
2.08167e-15
-2.52576e-15
-4.91274e-15
4.16334e-16
5.57887e-15
1.44329e-15
-1.11022e-16
-1.27676e-15
-2.38698e-15
-2.77556e-16
-2.9976e-15
-9.99201e-16
-1.88738e-15
3.33067e-16
4.88498e-15
1.249e-15
-1.63758e-15
2.83107e-15
6.38378e-16
-5.27356e-16
1.44329e-15
-1.52656e-15
-7.41074e-15
-3.16414e-15
5.32907e-15
5.91194e-15
1.85962e-15
-9.71445e-16
-7.49401e-16
1.11022e-16
-1.11022e-16
6.93889e-16
8.04912e-16
-4.44089e-16
-2.94209e-15
-3.77476e-15
4.44089e-16
2.60902e-15
9.99201e-16
4.996e-16
-8.32667e-16
-1.02696e-15
3.88578e-16
-4.996e-16
9.99201e-16
1.83187e-15
-6.38378e-16
-1.13798e-15
-1.22125e-15
-9.15934e-16
3.80251e-15
6.10623e-16
-1.4988e-15
-5.55112e-17
0
1.11022e-16
1.08247e-15
8.88178e-16
9.15934e-16
-1.66533e-16
-2.10942e-15
-1.4988e-15
-8.32667e-16
1.52656e-15
2.44249e-15
-7.21645e-16
2.498e-16
1.94289e-16
-1.52656e-15
-3.88578e-16
-1.19349e-15
-1.13798e-15
1.19349e-15
-6.38378e-16
-1.30451e-15
2.96985e-15
4.57967e-15
-4.52416e-15
-3.80251e-15
2.91434e-15
2.02616e-15
9.99201e-16
-2.22045e-16
3.05311e-16
-5.55112e-16
-2.44249e-15
0
2.498e-16
5.55112e-16
1.80411e-15
2.77556e-17
3.60822e-16
1.16573e-15
-1.44329e-15
-4.02456e-15
-2.22045e-16
-3.33067e-16
1.7486e-15
1.33227e-15
3.60822e-16
-2.77556e-17
9.4369e-16
9.15934e-16
-6.38378e-16
3.60822e-16
1.11022e-16
-3.33067e-16
-8.32667e-17
-5.55112e-17
5.27356e-16
-2.85882e-15
-2.96985e-15
2.63678e-15
1.33227e-15
1.33227e-15
5.82867e-16
-7.49401e-16
4.71845e-16
-5.55112e-17
3.05311e-16
8.88178e-16
-8.60423e-16
-1.249e-15
5.82867e-16
7.21645e-16
-7.21645e-16
-6.66134e-16
-7.49401e-16
8.88178e-16
5.82867e-16
-2.77556e-17
5.55112e-17
-1.85962e-15
-2.38698e-15
1.83187e-15
-2.77556e-16
-2.2482e-15
3.05311e-15
1.36002e-15
0
3.33067e-16
5.82867e-16
8.88178e-16
-1.249e-15
8.32667e-17
7.21645e-16
-8.88178e-16
-2.22045e-16
2.498e-16
-2.77556e-17
5.82867e-16
5.55112e-16
5.55112e-17
0
0
-4.16334e-16
-7.21645e-16
8.32667e-17
-6.10623e-16
-1.08247e-15
1.249e-15
1.19349e-15
-2.63678e-15
-8.60423e-16
1.69309e-15
4.71845e-16
6.93889e-16
4.71845e-16
-8.04912e-16
3.88578e-16
9.71445e-16
1.66533e-16
-3.88578e-16
-8.32667e-17
0
-1.7486e-15
-8.32667e-16
2.77556e-17
1.44329e-15
8.32667e-16
-1.41553e-15
1.11022e-16
2.77556e-16
-1.11022e-16
8.60423e-16
-6.66134e-16
-5.55112e-16
1.47105e-15
-1.11022e-16
0
9.71445e-16
-1.19349e-15
-1.41553e-15
8.60423e-16
4.71845e-15
5.53724e-14
4.85889e-13
3.98198e-12
3.05508e-11
2.07863e-10
1.24956e-09
7.00678e-09
3.77819e-08
1.96584e-07
9.84924e-07
4.69874e-06
2.02771e-05
7.10161e-05
0.000190014
0.000422897
0.000892398
0.00179096
0.00340485
0.00610897
0.0103179
0.0163856
0.0244777
0.0344746
0.0459606
0.0583511
0.070648
0.0824246
0.0932476
0.102735
0.111168
0.11804
0.123987
0.128384
0.131756
0.133721
0.134697
0.134735
0.134385
0.133555
0.132809
0.130915
0.128768
0.125331
0.120654
0.11602
0.110082
0.10361
0.0962274
0.089226
0.0820289
0.0769483
0.0739104
0.0728399
0.0744058
0.0812021
0.0845267
0.0716266
0.0137461
0.00178044
0.000189751
3.25866e-05
1.90293e-06
2.04457e-06
1.71452e-06
1.34012e-06
1.07829e-06
8.3345e-07
6.46798e-07
4.80086e-07
3.47969e-07
2.41924e-07
1.6249e-07
1.05218e-07
6.32463e-08
3.39042e-08
1.38419e-08
2.29652e-09
-3.9043e-09
-7.57227e-09
-8.34761e-09
-8.81049e-09
-9.14132e-09
-8.89435e-09
-9.51857e-09
-9.7002e-09
-9.88068e-09
-9.48741e-09
-9.33126e-09
-9.44587e-09
-9.08432e-09
-8.93742e-09
-8.85717e-09
-8.34737e-09
-7.69262e-09
-7.49935e-09
-7.16332e-09
-6.97858e-09
-6.35762e-09
-6.34688e-09
-6.28997e-09
-6.29528e-09
-5.73517e-09
-4.76103e-09
-4.44686e-09
-4.30268e-09
-3.10503e-09
-2.64995e-09
-2.00909e-09
-1.84993e-09
-1.48309e-09
-1.22834e-09
-9.48916e-10
-1.00418e-09
-1.22246e-09
-9.35941e-10
2.83052e-10
1.84585e-10
4.03759e-10
8.63139e-10
8.69193e-10
8.37304e-10
1.24373e-09
2.10984e-09
3.01286e-09
2.86992e-09
2.86119e-09
2.68322e-09
2.71987e-09
2.72136e-09
2.7095e-09
2.76358e-09
3.02872e-09
3.1971e-09
3.26035e-09
4.40573e-09
4.11653e-09
3.78211e-09
3.69697e-09
3.52922e-09
4.37571e-09
4.37583e-09
4.10495e-09
4.17413e-09
4.43545e-09
4.40096e-09
4.15655e-09
3.91243e-09
4.67185e-09
4.36404e-09
4.08593e-09
3.92711e-09
3.80993e-09
3.65874e-09
3.71313e-09
4.46822e-09
4.14869e-09
3.78962e-09
3.69194e-09
3.53421e-09
3.03881e-09
2.49649e-09
3.23203e-09
2.55135e-09
3.1725e-09
2.94553e-09
3.55831e-09
3.63252e-09
3.48942e-09
3.1938e-09
2.73285e-09
2.21098e-09
1.65939e-09
1.19468e-09
1.9061e-09
1.53841e-09
1.29066e-09
1.76347e-09
1.98928e-09
2.05621e-09
2.26828e-09
2.43196e-09
2.7042e-09
2.94125e-09
3.04216e-09
3.00885e-09
2.92708e-09
2.60054e-09
2.26997e-09
2.80032e-09
3.07939e-09
2.87437e-09
2.69313e-09
2.49274e-09
2.26085e-09
2.03234e-09
1.8117e-09
1.5788e-09
1.2889e-09
8.67161e-10
3.39057e-10
6.70752e-11
-3.21435e-10
-7.15218e-10
-9.90042e-10
-1.10589e-10
-5.42016e-10
-1.04085e-09
-1.42285e-09
-1.67802e-09
-1.92712e-09
-2.17305e-09
-2.10763e-09
-1.9737e-09
-2.06522e-09
-2.04898e-09
-1.75415e-09
-1.5648e-09
-1.26427e-09
-4.67026e-10
-3.61496e-10
-4.30433e-10
-5.89935e-10
1.23634e-12
-9.56391e-12
-1.9925e-10
-4.41162e-10
2.38458e-11
-9.90781e-11
-1.95996e-10
-5.25731e-10
-1.11586e-09
-8.23135e-10
-1.16914e-09
-1.31858e-09
-1.31767e-09
-1.43173e-09
-1.54343e-09
-1.51122e-09
-1.42401e-09
-8.69193e-10
-9.89616e-10
-1.09212e-09
-1.16722e-09
-1.17036e-09
-1.26438e-09
-1.38179e-09
-1.61525e-09
-1.80711e-09
-1.966e-09
-2.05446e-09
-2.04626e-09
-2.06525e-09
-2.13039e-09
-2.15928e-09
-1.10707e-09
-1.41542e-09
-1.49245e-09
-1.67456e-09
-1.74221e-09
-2.37335e-10
-2.32163e-10
-2.30642e-10
-1.96778e-10
-1.24984e-10
-4.83311e-11
1.59531e-10
1.16401e-10
4.82089e-10
7.34218e-10
1.3537e-09
1.41559e-09
1.92767e-09
1.73183e-09
2.54903e-09
2.20754e-09
2.05392e-09
1.90587e-09
1.60411e-09
1.26859e-09
1.02844e-09
1.06614e-09
1.38836e-09
1.81028e-09
1.62025e-09
1.41074e-09
1.30534e-09
1.20286e-09
1.37395e-09
1.11314e-09
9.26008e-10
7.39888e-10
5.79803e-10
3.92689e-10
5.15058e-10
2.69537e-10
1.08703e-09
1.0519e-09
1.67574e-09
1.65939e-09
1.48495e-09
2.19104e-09
1.84913e-09
1.54509e-09
1.39278e-09
1.53203e-09
2.07729e-09
2.12493e-09
1.9613e-09
1.89026e-09
3.16112e-09
3.15966e-09
3.46694e-09
3.42585e-09
3.41396e-09
3.33408e-09
3.51042e-09
3.31197e-09
3.05805e-09
2.89562e-09
2.71596e-09
2.61912e-09
2.86428e-09
2.50438e-09
1.92804e-09
1.49673e-09
1.38989e-09
1.24706e-09
1.10497e-09
9.41e-10
7.96589e-10
5.39686e-10
2.29448e-10
4.97238e-11
-1.28097e-10
-2.62872e-10
4.6937e-10
1.0067e-09
1.07855e-09
1.27611e-09
1.40452e-09
1.55268e-09
1.60827e-09
1.57839e-09
1.57974e-09
1.5749e-09
1.60973e-09
1.4567e-09
2.44331e-09
2.12184e-09
1.866e-09
2.13061e-09
1.66693e-09
1.17272e-09
8.18858e-10
5.86212e-10
2.35033e-10
-2.57032e-10
-7.56287e-10
-1.10306e-09
-1.26161e-09
-1.44826e-09
-3.16902e-10
-4.57689e-10
-2.40448e-10
7.34715e-10
4.33246e-10
9.76996e-11
-1.20181e-10
-2.50296e-10
-4.45226e-10
-6.91458e-10
-3.42183e-10
-7.33891e-10
-1.00422e-09
-1.30805e-09
-1.61378e-09
-1.92787e-09
-1.84767e-09
-2.09968e-09
-2.35646e-09
-2.50478e-09
-2.73914e-09
-2.98429e-09
-3.00626e-09
-2.6766e-09
-2.59105e-09
-2.50417e-09
-2.82449e-09
-3.07894e-09
-3.15572e-09
-3.09872e-09
-2.94325e-09
-2.77522e-09
-2.67353e-09
-2.56155e-09
-2.51083e-09
-2.35777e-09
-2.19434e-09
-2.21058e-09
-2.21439e-09
-2.21105e-09
-2.25056e-09
-1.7145e-09
-1.87507e-09
-2.06329e-09
-1.93606e-09
-1.24531e-09
-1.15274e-09
-9.95101e-10
-5.17687e-10
-1.77067e-11
-1.1309e-10
-2.32347e-10
-4.21764e-10
-7.30623e-10
-1.15566e-09
-1.4483e-09
-1.61134e-09
-1.85857e-09
-2.03167e-09
-1.92831e-09
-2.13223e-09
-1.9923e-09
-1.72152e-09
-1.51718e-09
-1.2954e-09
-1.21271e-09
-1.14824e-11
-1.78588e-10
3.5466e-10
4.87759e-10
1.30498e-09
1.45776e-09
1.02601e-09
6.64627e-10
8.01762e-10
1.29576e-09
1.45847e-09
1.42649e-09
1.44733e-09
1.44824e-09
1.58987e-09
1.68939e-09
1.70313e-09
1.71845e-09
1.59775e-09
1.53874e-09
1.64341e-09
1.86077e-09
1.86331e-09
1.71832e-09
1.36811e-09
1.06925e-09
7.14735e-10
3.8284e-10
)
;

boundaryField
{
    sides
    {
        type            calculated;
        value           uniform 0;
    }
    empty1
    {
        type            empty;
        value           nonuniform List<scalar> 0();
    }
    empty2
    {
        type            empty;
        value           nonuniform List<scalar> 0();
    }
}


// ************************************************************************* //
