/*--------------------------------*- C++ -*----------------------------------*\
| =========                 |                                                 |
| \\      /  F ield         | OpenFOAM: The Open Source CFD Toolbox           |
|  \\    /   O peration     | Version:  2312                                  |
|   \\  /    A nd           | Website:  www.openfoam.com                      |
|    \\/     M anipulation  |                                                 |
\*---------------------------------------------------------------------------*/
FoamFile
{
    version     2.0;
    format      ascii;
    arch        "LSB;label=32;scalar=64";
    class       volVectorField;
    location    "5e-05";
    object      U;
}
// * * * * * * * * * * * * * * * * * * * * * * * * * * * * * * * * * * * * * //

dimensions      [0 1 -1 0 0 0 0];

internalField   nonuniform List<vector> 
800
(
(2.39104e-13 0 0)
(4.78228e-13 0 0)
(-2.52706e-13 0 0)
(-4.64626e-13 0 0)
(9.56455e-13 0 0)
(8.55239e-13 0 0)
(-2.02691e-12 0 0)
(-9.80138e-13 0 0)
(4.78113e-13 0 0)
(9.56417e-13 0 0)
(4.78189e-13 0 0)
(4.78208e-13 0 0)
(4.78247e-13 0 0)
(-1.56624e-12 0 0)
(-1.48375e-12 0 0)
(2.65255e-13 0 0)
(-1.04095e-12 0 0)
(9.56379e-13 0 0)
(-2.08037e-13 0 0)
(-7.48207e-13 0 0)
(1.19527e-12 0 0)
(-1.61777e-12 0 0)
(1.85812e-12 0 0)
(3.3461e-12 0 0)
(-1.85288e-12 0 0)
(-2.04066e-12 0 0)
(6.79684e-14 0 0)
(2.39116e-12 0 0)
(4.78228e-13 0 0)
(-4.78228e-13 0 0)
(-1.91299e-17 0 0)
(-1.91299e-17 0 0)
(-1.37515e-12 0 0)
(-5.37741e-13 0 0)
(1.91299e-12 0 0)
(-1.45867e-12 0 0)
(-3.57707e-12 0 0)
(-1.17961e-12 0 0)
(4.78017e-13 0 0)
(3.82479e-12 0 0)
(1.91301e-17 0 0)
(9.56015e-13 0 0)
(-9.56359e-13 0 0)
(-1.30969e-12 0 0)
(-1.2488e-13 0 0)
(9.56359e-13 0 0)
(4.78189e-13 0 0)
(-5.74967e-13 0 0)
(-3.81507e-13 0 0)
(2.86929e-12 0 0)
(-5.2039e-13 0 0)
(-4.36046e-13 0 0)
(1.04086e-13 0 0)
(-1.06052e-12 0 0)
(9.56493e-13 0 0)
(9.56398e-13 0 0)
(-2.09321e-12 0 0)
(-2.97814e-13 0 0)
(3.82597e-17 0 0)
(4.78132e-13 0 0)
(-4.78228e-13 0 0)
(-1.91299e-17 0 0)
(4.78228e-13 0 0)
(9.56455e-13 0 0)
(-4.78189e-13 0 0)
(1.91266e-12 0 0)
(-1.61839e-13 0 0)
(-1.7508e-12 0 0)
(1.91259e-12 0 0)
(-1.33966e-12 0 0)
(-1.62573e-12 0 0)
(9.63189e-14 0 0)
(4.78189e-13 0 0)
(-2.39032e-12 0 0)
(9.56532e-13 0 0)
(3.34667e-12 0 0)
(-9.56474e-13 0 0)
(9.56474e-13 0 0)
(-9.56455e-13 0 0)
(-9.56493e-13 0 0)
(1.43464e-12 0 0)
(-4.78189e-13 0 0)
(9.56436e-13 0 0)
(-9.5634e-13 0 0)
(-9.56436e-13 0 0)
(9.56379e-13 0 0)
(-4.78228e-13 0 0)
(4.78208e-13 0 0)
(-2.86137e-12 0 0)
(-1.44163e-12 0 0)
(5.25939e-12 0 0)
(-1.03563e-12 0 0)
(-8.772e-13 0 0)
(9.56398e-13 0 0)
(-4.78189e-13 0 0)
(4.78323e-13 0 0)
(4.78189e-13 0 0)
(3.47016e-14 0 0)
(-1.46927e-12 0 0)
(-1.37804e-12 0 0)
(8.99735e-13 0 0)
(4.78208e-13 0 0)
(-1.65971e-13 0 0)
(-3.12257e-13 0 0)
(4.78189e-13 0 0)
(9.56436e-13 0 0)
(9.56455e-13 0 0)
(-3.45001e-23 0 0)
(-1.91278e-12 0 0)
(-1.30791e-12 0 0)
(-2.9947e-12 0 0)
(2.39049e-12 0 0)
(2.86849e-12 0 0)
(-4.78285e-13 0 0)
(4.78228e-13 0 0)
(-1.16457e-12 0 0)
(2.08248e-13 0 0)
(9.56359e-13 0 0)
(-4.78247e-13 0 0)
(6.00008e-13 0 0)
(-2.63273e-12 0 0)
(-1.31407e-12 0 0)
(2.86879e-12 0 0)
(-2.38997e-12 0 0)
(3.48663e-23 0 0)
(2.86797e-12 0 0)
(4.78228e-13 0 0)
(1.30693e-12 0 0)
(-3.58698e-12 0 0)
(-1.54384e-12 0 0)
(-2.29558e-16 0 0)
(1.43474e-12 0 0)
(2.31931e-12 0 0)
(-5.08376e-12 0 0)
(1.80684e-12 0 0)
(1.14779e-16 0 0)
(2.39142e-13 0 0)
(3.10769e-12 0 0)
(-1.06429e-12 0 0)
(-3.70182e-13 0 0)
(2.391e-12 0 0)
(-1.116e-12 0 0)
(-1.27518e-12 0 0)
(4.78189e-13 0 0)
(1.91297e-12 0 0)
(-1.74954e-12 0 0)
(-1.57661e-12 0 0)
(9.35087e-13 0 0)
(-4.7817e-13 0 0)
(1.91283e-12 0 0)
(5.66455e-13 0 0)
(-4.02613e-12 0 0)
(-3.71144e-12 0 0)
(4.3029e-12 0 0)
(3.82465e-12 0 0)
(-9.56398e-13 0 0)
(8.24268e-13 0 0)
(-3.10847e-12 0 0)
(-1.06419e-13 0 0)
(-1.43233e-12 0 0)
(-2.22486e-12 0 0)
(-3.86997e-14 0 0)
(-2.51715e-12 0 0)
(3.34497e-12 0 0)
(4.30221e-12 0 0)
(-2.39037e-12 0 0)
(9.56359e-13 0 0)
(2.39043e-12 0 0)
(-9.56493e-13 0 0)
(4.78189e-13 0 0)
(1.43472e-12 0 0)
(-4.77887e-12 0 0)
(-5.84488e-12 0 0)
(2.01923e-12 0 0)
(5.25714e-12 0 0)
(3.34736e-12 0 0)
(1.38959e-13 0 0)
(-1.09538e-12 0 0)
(-1.81121e-23 0 0)
(-1.91299e-17 0 0)
(3.82598e-17 0 0)
(9.56417e-13 0 0)
(8.622e-24 0 0)
(-8.53364e-13 0 0)
(-3.45017e-12 0 0)
(-1.91247e-12 0 0)
(1.91268e-12 0 0)
(1.91234e-12 0 0)
(1.91299e-17 0 0)
(6.14356e-13 0 0)
(-1.92634e-12 0 0)
(3.55567e-13 0 0)
(-9.64528e-14 0 0)
(-3.81641e-13 0 0)
(1.91264e-12 0 0)
(4.39451e-13 0 0)
(-9.17679e-13 0 0)
(-8.16654e-13 0 0)
(-1.35047e-12 0 0)
(1.2114e-12 0 0)
(3.34679e-12 0 0)
(-2.29857e-12 0 0)
(-9.24929e-14 0 0)
(-1.91299e-17 0 0)
(-1.91299e-17 0 0)
(4.78266e-13 0 0)
(9.56417e-13 0 0)
(4.78208e-13 0 0)
(9.56436e-13 0 0)
(-1.43457e-12 0 0)
(-1.59593e-12 0 0)
(-7.9498e-13 0 0)
(-4.78113e-13 0 0)
(2.86893e-12 0 0)
(3.87418e-13 0 0)
(-8.65607e-13 0 0)
(1.19554e-12 0 0)
(-1.02375e-12 0 0)
(-1.12822e-12 0 0)
(3.68231e-13 0 0)
(-2.34731e-12 0 0)
(7.83789e-13 0 0)
(7.28064e-13 0 0)
(-1.44538e-12 0 0)
(7.65197e-17 0 0)
(4.30332e-12 0 0)
(1.4342e-12 0 0)
(-7.17175e-12 0 0)
(1.43447e-12 0 0)
(2.39047e-12 0 0)
(9.56455e-13 0 0)
(4.78189e-13 0 0)
(-4.78266e-13 0 0)
(9.56493e-13 0 0)
(-1.9127e-12 0 0)
(-1.43464e-12 0 0)
(9.56302e-13 0 0)
(-4.78094e-13 0 0)
(1.43468e-12 0 0)
(9.56302e-13 0 0)
(-4.78266e-13 0 0)
(9.56417e-13 0 0)
(9.06584e-13 0 0)
(-3.41246e-12 0 0)
(-1.79744e-12 0 0)
(-1.33909e-16 0 0)
(5.73897e-17 0 0)
(2.39058e-12 0 0)
(-5.73895e-17 0 0)
(4.78208e-13 0 0)
(-4.78208e-13 0 0)
(1.91285e-12 0 0)
(-5.20371e-13 0 0)
(-4.36065e-13 0 0)
(9.56455e-13 0 0)
(-7.73134e-13 0 0)
(2.94906e-13 0 0)
(-4.78208e-13 0 0)
(4.78323e-13 0 0)
(6.63041e-14 0 0)
(-4.53958e-12 0 0)
(6.48139e-13 0 0)
(2.39037e-12 0 0)
(9.56495e-17 0 0)
(1.91278e-12 0 0)
(-9.56493e-13 0 0)
(-9.17221e-24 0 0)
(4.78266e-13 0 0)
(-4.78247e-13 0 0)
(9.56474e-13 0 0)
(1.55996e-25 0 0)
(-9.56359e-13 0 0)
(-9.56398e-13 0 0)
(1.9127e-12 0 0)
(-7.48246e-13 0 0)
(-3.91454e-13 0 0)
(-7.73114e-13 0 0)
(-1.91299e-17 0 0)
(9.56455e-13 0 0)
(-3.82597e-17 0 0)
(3.82597e-17 0 0)
(-1.13817e-22 0 0)
(-2.89448e-12 0 0)
(2.55384e-14 0 0)
(2.0239e-12 0 0)
(-2.50198e-12 0 0)
(4.78228e-13 0 0)
(2.86879e-12 0 0)
(-4.78208e-13 0 0)
(4.78208e-13 0 0)
(1.91299e-17 0 0)
(9.56417e-13 0 0)
(-9.71606e-14 0 0)
(-1.33754e-12 0 0)
(1.43466e-12 0 0)
(-5.09945e-13 0 0)
(-7.87538e-13 0 0)
(3.41047e-13 0 0)
(1.91299e-17 0 0)
(1.91299e-17 0 0)
(9.56436e-13 0 0)
(9.91935e-24 0 0)
(4.04051e-36 0 0)
(1.95465e-29 0 0)
(-7.19144e-24 0 0)
(-7.48303e-13 0 0)
(-2.08171e-13 0 0)
(1.31288e-13 0 0)
(-1.08771e-12 0 0)
(5.73896e-17 0 0)
(1.43461e-12 0 0)
(-4.78151e-13 0 0)
(-2.82571e-12 0 0)
(1.39107e-12 0 0)
(9.56513e-13 0 0)
(-9.56493e-17 0 0)
(1.19543e-12 0 0)
(-5.50768e-13 0 0)
(-6.44772e-13 0 0)
(1.19562e-12 0 0)
(2.39104e-13 0 0)
(-2.54436e-24 0 0)
(-4.78189e-13 0 0)
(4.78132e-13 0 0)
(-9.56206e-13 0 0)
(-1.43466e-12 0 0)
(-2.36316e-23 0 0)
(-1.91298e-17 0 0)
(2.39093e-12 0 0)
(-1.03563e-12 0 0)
(-8.77238e-13 0 0)
(9.56513e-13 0 0)
(-4.78247e-13 0 0)
(4.78189e-13 0 0)
(7.93354e-13 0 0)
(-1.85411e-12 0 0)
(1.06083e-12 0 0)
(9.56359e-13 0 0)
(-9.56455e-13 0 0)
(9.55403e-13 0 0)
(1.05214e-15 0 0)
(-1.37129e-12 0 0)
(-8.60461e-14 0 0)
(1.47442e-12 0 0)
(4.67322e-12 0 0)
(6.70564e-11 0 0)
(6.12404e-10 0 0)
(5.01272e-09 0 0)
(4.15877e-08 0 0)
(2.86423e-07 0 0)
(1.68804e-06 0 0)
(9.42778e-06 0 0)
(5.06975e-05 0 0)
(0.00026339 0 0)
(0.00132261 0 0)
(0.00644973 0 0)
(0.0287343 0 0)
(0.0950566 0 0)
(0.226179 0 0)
(0.492148 0 0)
(1.02223 0 0)
(2.01852 0 0)
(3.77577 0 0)
(6.67516 0 0)
(11.1429 0 0)
(17.5738 0 0)
(26.2407 0 0)
(37.2276 0 0)
(50.4112 0 0)
(65.4717 0 0)
(81.7879 0 0)
(99.1512 0 0)
(116.94 0 0)
(135.46 0 0)
(154.062 0 0)
(173.119 0 0)
(192.306 0 0)
(211.339 0 0)
(229.701 0 0)
(245.963 0 0)
(259.738 0 0)
(267.99 0 0)
(275.454 0 0)
(275.51 0 0)
(283.857 0 0)
(279.034 0 0)
(290.173 0 0)
(284.731 0 0)
(293.975 0 0)
(297.666 0 0)
(298.052 0 0)
(287.133 0 0)
(289.831 0 0)
(288.254 0 0)
(288.403 0 0)
(290.434 0 0)
(291.427 0 0)
(286.817 0 0)
(273.094 0 0)
(245.97 0 0)
(182.329 0 0)
(86.0991 0 0)
(12.4318 0 0)
(1.08618 0 0)
(0.108243 0 0)
(0.0097436 0 0)
(-2.15956e-07 0 0)
(2.67861e-05 0 0)
(8.46605e-06 0 0)
(1.37665e-05 0 0)
(7.71242e-06 0 0)
(7.50369e-06 0 0)
(5.10521e-06 0 0)
(4.22507e-06 0 0)
(2.70228e-06 0 0)
(2.05568e-06 0 0)
(1.20809e-06 0 0)
(8.55389e-07 0 0)
(4.17412e-07 0 0)
(2.40278e-07 0 0)
(4.66951e-08 0 0)
(-1.12942e-08 0 0)
(-6.63081e-08 0 0)
(-8.1732e-08 0 0)
(-8.5292e-08 0 0)
(-9.75809e-08 0 0)
(-8.50585e-08 0 0)
(-9.79532e-08 0 0)
(-9.30382e-08 0 0)
(-1.005e-07 0 0)
(-9.60955e-08 0 0)
(-9.32066e-08 0 0)
(-9.38231e-08 0 0)
(-9.4761e-08 0 0)
(-8.68446e-08 0 0)
(-8.82812e-08 0 0)
(-8.8184e-08 0 0)
(-7.84802e-08 0 0)
(-7.61634e-08 0 0)
(-7.38961e-08 0 0)
(-6.99173e-08 0 0)
(-6.59268e-08 0 0)
(-6.28295e-08 0 0)
(-6.28105e-08 0 0)
(-6.2827e-08 0 0)
(-6.11884e-08 0 0)
(-5.13276e-08 0 0)
(-4.51866e-08 0 0)
(-4.78603e-08 0 0)
(-3.1711e-08 0 0)
(-3.04345e-08 0 0)
(-1.70431e-08 0 0)
(-2.24629e-08 0 0)
(-1.43152e-08 0 0)
(-1.3837e-08 0 0)
(-1.03082e-08 0 0)
(-8.95449e-09 0 0)
(-1.05255e-08 0 0)
(-1.30201e-08 0 0)
(-2.16766e-09 0 0)
(4.76169e-09 0 0)
(-1.20046e-09 0 0)
(8.87671e-09 0 0)
(8.95163e-09 0 0)
(9.09021e-09 0 0)
(7.93564e-09 0 0)
(1.91603e-08 0 0)
(2.35803e-08 0 0)
(3.39076e-08 0 0)
(2.35121e-08 0 0)
(3.33208e-08 0 0)
(2.03716e-08 0 0)
(3.33504e-08 0 0)
(2.13361e-08 0 0)
(3.2227e-08 0 0)
(2.27142e-08 0 0)
(3.79011e-08 0 0)
(3.12814e-08 0 0)
(3.66159e-08 0 0)
(5.01221e-08 0 0)
(3.1658e-08 0 0)
(4.40239e-08 0 0)
(2.86875e-08 0 0)
(4.27262e-08 0 0)
(4.44157e-08 0 0)
(4.35338e-08 0 0)
(3.9014e-08 0 0)
(4.27278e-08 0 0)
(4.27923e-08 0 0)
(4.68949e-08 0 0)
(3.657e-08 0 0)
(4.34824e-08 0 0)
(4.76276e-08 0 0)
(3.9668e-08 0 0)
(4.0566e-08 0 0)
(3.77363e-08 0 0)
(3.71688e-08 0 0)
(3.6328e-08 0 0)
(3.83298e-08 0 0)
(5.00817e-08 0 0)
(3.1473e-08 0 0)
(4.3806e-08 0 0)
(3.00718e-08 0 0)
(3.94599e-08 0 0)
(2.16385e-08 0 0)
(3.22854e-08 0 0)
(2.80139e-08 0 0)
(2.72089e-08 0 0)
(3.20311e-08 0 0)
(2.66521e-08 0 0)
(4.45026e-08 0 0)
(2.8187e-08 0 0)
(3.90412e-08 0 0)
(2.48702e-08 0 0)
(2.90426e-08 0 0)
(1.61845e-08 0 0)
(1.68254e-08 0 0)
(1.03629e-08 0 0)
(2.49924e-08 0 0)
(1.01706e-08 0 0)
(1.54765e-08 0 0)
(1.67549e-08 0 0)
(2.24138e-08 0 0)
(1.82553e-08 0 0)
(2.47131e-08 0 0)
(2.73593e-08 0 0)
(2.65965e-08 0 0)
(3.18881e-08 0 0)
(2.87145e-08 0 0)
(2.95417e-08 0 0)
(2.70701e-08 0 0)
(2.47918e-08 0 0)
(2.19344e-08 0 0)
(3.16637e-08 0 0)
(3.03026e-08 0 0)
(2.73759e-08 0 0)
(2.70539e-08 0 0)
(2.22403e-08 0 0)
(2.3001e-08 0 0)
(1.69314e-08 0 0)
(1.93879e-08 0 0)
(1.20321e-08 0 0)
(1.32854e-08 0 0)
(2.8755e-09 0 0)
(3.85214e-09 0 0)
(-2.89886e-09 0 0)
(-2.94552e-09 0 0)
(-1.08307e-08 0 0)
(-5.36156e-09 0 0)
(4.14646e-10 0 0)
(-1.11422e-08 0 0)
(-9.68328e-09 0 0)
(-1.84631e-08 0 0)
(-1.45827e-08 0 0)
(-2.42719e-08 0 0)
(-1.75471e-08 0 0)
(-2.45398e-08 0 0)
(-1.6199e-08 0 0)
(-2.51187e-08 0 0)
(-1.89143e-08 0 0)
(-1.40545e-08 0 0)
(-2.24098e-08 0 0)
(-3.02294e-09 0 0)
(-4.47548e-09 0 0)
(-1.92807e-09 0 0)
(-6.65816e-09 0 0)
(-3.7299e-09 0 0)
(1.07515e-09 0 0)
(-2.71095e-10 0 0)
(-3.33557e-09 0 0)
(-3.90252e-09 0 0)
(3.10711e-09 0 0)
(-5.08781e-09 0 0)
(6.61571e-10 0 0)
(-1.26607e-08 0 0)
(-9.66254e-09 0 0)
(-1.05607e-08 0 0)
(-1.35368e-08 0 0)
(-1.28457e-08 0 0)
(-1.44808e-08 0 0)
(-1.38918e-08 0 0)
(-1.74538e-08 0 0)
(-1.71498e-08 0 0)
(-9.13337e-09 0 0)
(-9.40038e-09 0 0)
(-1.10412e-08 0 0)
(-1.07319e-08 0 0)
(-1.23069e-08 0 0)
(-1.04038e-08 0 0)
(-1.40366e-08 0 0)
(-1.27841e-08 0 0)
(-1.93613e-08 0 0)
(-1.65042e-08 0 0)
(-2.28833e-08 0 0)
(-1.95859e-08 0 0)
(-2.13568e-08 0 0)
(-2.11485e-08 0 0)
(-2.12808e-08 0 0)
(-1.95282e-08 0 0)
(-5.92394e-09 0 0)
(-2.24277e-08 0 0)
(-2.87794e-09 0 0)
(-3.06404e-08 0 0)
(7.49928e-10 0 0)
(-6.30576e-09 0 0)
(3.0278e-09 0 0)
(-8.51624e-09 0 0)
(5.03076e-09 0 0)
(-7.48721e-09 0 0)
(6.51966e-09 0 0)
(-3.06055e-09 0 0)
(6.46754e-09 0 0)
(4.74802e-09 0 0)
(1.09536e-08 0 0)
(1.44084e-08 0 0)
(1.29831e-08 0 0)
(2.38718e-08 0 0)
(1.29639e-08 0 0)
(3.19665e-08 0 0)
(1.22151e-08 0 0)
(2.74123e-08 0 0)
(1.07661e-08 0 0)
(2.03607e-08 0 0)
(4.62895e-09 0 0)
(1.4949e-08 0 0)
(7.23054e-09 0 0)
(1.98777e-08 0 0)
(1.69575e-08 0 0)
(1.52751e-08 0 0)
(1.35899e-08 0 0)
(1.32313e-08 0 0)
(1.37399e-08 0 0)
(1.18598e-08 0 0)
(1.11704e-08 0 0)
(7.70036e-09 0 0)
(8.22768e-09 0 0)
(2.86458e-09 0 0)
(6.54977e-09 0 0)
(9.77684e-10 0 0)
(6.59931e-09 0 0)
(1.09614e-08 0 0)
(8.32926e-09 0 0)
(2.52249e-08 0 0)
(1.03347e-08 0 0)
(2.1499e-08 0 0)
(2.00243e-08 0 0)
(1.57161e-08 0 0)
(1.61321e-08 0 0)
(1.09096e-08 0 0)
(1.89303e-08 0 0)
(2.22142e-08 0 0)
(2.0319e-08 0 0)
(1.86683e-08 0 0)
(2.35363e-08 0 0)
(3.40788e-08 0 0)
(3.25599e-08 0 0)
(3.59048e-08 0 0)
(3.40951e-08 0 0)
(3.43339e-08 0 0)
(3.47533e-08 0 0)
(3.46374e-08 0 0)
(3.11084e-08 0 0)
(2.96222e-08 0 0)
(2.83206e-08 0 0)
(2.57106e-08 0 0)
(2.67034e-08 0 0)
(2.64166e-08 0 0)
(2.14132e-08 0 0)
(1.65569e-08 0 0)
(1.40652e-08 0 0)
(1.3751e-08 0 0)
(7.8224e-09 0 0)
(1.37198e-08 0 0)
(5.24394e-09 0 0)
(1.01153e-08 0 0)
(2.25291e-09 0 0)
(2.38794e-09 0 0)
(-1.29867e-09 0 0)
(-1.26474e-09 0 0)
(-3.55703e-09 0 0)
(1.15802e-08 0 0)
(8.88662e-09 0 0)
(1.27065e-08 0 0)
(1.29624e-08 0 0)
(1.55251e-08 0 0)
(1.6443e-08 0 0)
(1.57356e-08 0 0)
(1.74159e-08 0 0)
(1.41963e-08 0 0)
(1.87369e-08 0 0)
(1.32318e-08 0 0)
(1.74152e-08 0 0)
(2.61239e-08 0 0)
(1.68379e-08 0 0)
(2.03761e-08 0 0)
(1.8495e-08 0 0)
(1.37196e-08 0 0)
(1.0766e-08 0 0)
(6.62615e-09 0 0)
(5.69562e-09 0 0)
(-1.42435e-09 0 0)
(-3.34503e-09 0 0)
(-1.094e-08 0 0)
(-1.04305e-08 0 0)
(-1.73866e-08 0 0)
(-7.10215e-09 0 0)
(-1.86263e-09 0 0)
(-5.6445e-09 0 0)
(3.63005e-09 0 0)
(8.72141e-09 0 0)
(-1.83837e-10 0 0)
(2.23319e-09 0 0)
(-4.68134e-09 0 0)
(-3.70676e-10 0 0)
(-8.57166e-09 0 0)
(-5.1551e-09 0 0)
(-4.09057e-09 0 0)
(-1.09641e-08 0 0)
(-9.37099e-09 0 0)
(-1.60668e-08 0 0)
(-1.61346e-08 0 0)
(-2.08373e-08 0 0)
(-1.61373e-08 0 0)
(-2.55053e-08 0 0)
(-2.0105e-08 0 0)
(-2.9922e-08 0 0)
(-2.40923e-08 0 0)
(-3.59549e-08 0 0)
(-2.732e-08 0 0)
(-2.54016e-08 0 0)
(-2.63147e-08 0 0)
(-2.55895e-08 0 0)
(-3.11171e-08 0 0)
(-3.01896e-08 0 0)
(-3.27811e-08 0 0)
(-2.94014e-08 0 0)
(-2.94907e-08 0 0)
(-2.72954e-08 0 0)
(-2.60449e-08 0 0)
(-2.69911e-08 0 0)
(-2.29986e-08 0 0)
(-2.40371e-08 0 0)
(-1.90898e-08 0 0)
(-2.66243e-08 0 0)
(-1.76825e-08 0 0)
(-2.8031e-08 0 0)
(-1.70518e-08 0 0)
(-1.71825e-08 0 0)
(-1.93898e-08 0 0)
(-2.11194e-08 0 0)
(-1.69374e-08 0 0)
(-7.74519e-09 0 0)
(-1.56708e-08 0 0)
(-4.38616e-09 0 0)
(-9.09937e-09 0 0)
(8.66689e-09 0 0)
(-9.44467e-09 0 0)
(4.79272e-09 0 0)
(-1.25896e-08 0 0)
(-4.46979e-09 0 0)
(-1.69137e-08 0 0)
(-1.20693e-08 0 0)
(-1.97906e-08 0 0)
(-1.66041e-08 0 0)
(-2.33191e-08 0 0)
(-1.52693e-08 0 0)
(-2.57837e-08 0 0)
(-1.41489e-08 0 0)
(-2.04659e-08 0 0)
(-1.05882e-08 0 0)
(-1.31988e-08 0 0)
(-4.67816e-09 0 0)
(1.00667e-09 0 0)
(-5.31568e-09 0 0)
(1.31461e-08 0 0)
(-1.39037e-09 0 0)
(2.24562e-08 0 0)
(5.84026e-09 0 0)
(1.48228e-08 0 0)
(1.46267e-10 0 0)
(1.59107e-08 0 0)
(9.88744e-09 0 0)
(1.68079e-08 0 0)
(1.23861e-08 0 0)
(1.53255e-08 0 0)
(1.61315e-08 0 0)
(1.56779e-08 0 0)
(1.87328e-08 0 0)
(1.57809e-08 0 0)
(1.86043e-08 0 0)
(1.3829e-08 0 0)
(1.6978e-08 0 0)
(1.70129e-08 0 0)
(2.03432e-08 0 0)
(1.75807e-08 0 0)
(1.63243e-08 0 0)
(1.14203e-08 0 0)
(1.00019e-08 0 0)
(3.87663e-09 0 0)
(2.1082e-09 0 0)
)
;

boundaryField
{
    sides
    {
        type            fixedValue;
        value           uniform (0 0 0);
    }
    empty1
    {
        type            empty;
    }
    empty2
    {
        type            empty;
    }
}


// ************************************************************************* //
